32
Lattice="8.1 0.0 0.0 0.0 8.1 0.0 0.0 0.0 8.1" Properties=species:S:1:pos:R:3:momenta:R:3:future_positions:R:3:future_momenta:R:3:energies:R:1:forces:R:3 energy=1.485070621928732 free_energy=1.485070621928732 stress="0.004748527605597984 -0.0005159223325546574 -0.00020456508854005826 -0.0005159223325546574 0.004877230216583212 0.0012077577011697315 -0.00020456508854005826 0.0012077577011697315 0.0033957219143500132" pbc="T T T"
Al      -0.20355672       0.00361457       0.22515666      -1.41777747      -1.42825966      -0.15365751      -0.33019641      -0.02409420       0.15958991      -0.71252980       0.87614745      -1.01077981       0.09396590       0.03577615       0.66753406      -0.32228997
Al      -0.25537131       2.09608576       1.96931087       0.77238699      -0.27298995       0.60716715      -0.12972189       2.09640195       2.04854544       1.40149468       0.23364614       0.76296219       0.01390455       0.31411862       0.21870770       0.14723352
Al       1.96105871       0.01517841       2.09967062      -0.38275155       0.17340576      -0.49529130       1.91060492       0.08925015       2.03217073      -0.54975753       1.03065137      -0.60146553       0.03568910      -0.04576590       0.40010827      -0.18208564
Al       1.76123924       2.07277645      -0.11416434       0.68545250       0.00381789       0.11433489       1.85071881       2.06112666      -0.03844262       0.89962346      -0.18115118       1.11009989       0.01960832       0.12657113      -0.07430352       0.47428843
Al      -0.01416277       0.00924651       3.86756994       0.08215060       0.59906398       0.89503345      -0.05026190       0.09291969       4.01513497      -0.64492425       0.82613623       1.67435218       0.01890020      -0.34719377       0.17796376       0.35533604
Al      -0.29243805       1.97558913       6.07482018       1.08082074      -0.13893278       0.59323204      -0.14171833       1.96598905       6.13139364       1.40082204      -0.05266292       0.36634381       0.01959760       0.41162008       0.08137737       0.02099793
Al       2.16044206       0.18842518       6.04456424      -0.80176289      -0.31826226      -1.30701442       2.02074976       0.14701176       5.93425311      -1.54045086      -0.46782270      -0.55663960       0.10495038      -0.45513294       0.00056567       0.05599095
Al       2.05148582       2.04185682       4.20441755      -0.34787820       0.80045749       0.88881949       1.96113460       2.14289560       4.19587191      -1.22070949       0.93061135      -1.14339241       0.04015669      -0.34822380       0.14715863      -0.51714017
Al      -0.20392392       4.12603257      -0.02148454      -0.18599947      -0.93282292       0.26264359      -0.19629537       4.05693729       0.00242937       0.44104812      -0.20909628       0.30617844       0.02581378       0.09346235       0.08425937      -0.11165770
Al      -0.19306754       6.11377837       1.87662120       0.23367959       1.29103617       1.41176575      -0.10934845       6.19721759       2.06589360       1.09431827       0.22823115       1.78387877       0.06711503       0.49358053      -0.23576610       0.38754331
Al       1.96198771       4.25330396       2.15896507      -0.09423535       0.56345242       0.76133471       1.87513107       4.25282504       2.18023526      -1.23803772      -0.45902279      -0.37333395       0.07180151      -0.58166529      -0.44617540      -0.34750864
Al       1.91230465       6.44227957      -0.24031914      -0.54540845      -0.43783277       0.05563754       1.85000174       6.32019557      -0.18613972      -0.64959870      -1.65816275       0.84317371       0.06456691       0.00320080      -0.53896645       0.36616354
Al      -0.00310904       4.09645502       4.10396948      -1.26511930       1.54144011       0.11820540      -0.17490010       4.24395467       4.09046494      -1.64907486       0.99713324      -0.27747049       0.03744171      -0.33767022      -0.01426206      -0.20005062
Al      -0.20539758       6.51594475       6.25421138      -0.55501303      -0.25906522       0.62914946      -0.26833400       6.39590989       6.22834064      -0.42160108      -1.85411228      -1.05770358       0.04454210      -0.11154703      -0.56361147      -0.52887762
Al       1.69791621       4.02320577       6.14535255       0.48118184      -0.14043372      -1.50129039       1.78852485       4.07280876       5.99204114       1.00942967       0.98487032      -1.06204172       0.06003127       0.33105065       0.40868135      -0.12526282
Al       1.89622103       6.20094738       4.28136576       0.82944171       0.00873627       0.32681956       1.98197541       6.17556400       4.27825843       0.68855277      -0.35153884      -0.51339284       0.01464518       0.00445698      -0.23271280      -0.15957827
Al       3.92870549       0.31589146       0.02652896      -0.32030108      -1.05783569      -0.19823158       3.87588123       0.13759845      -0.02725150      -0.50410951      -1.74174964      -0.80887827       0.06998791      -0.21009404      -0.66306964      -0.16610613
Al       4.06158902       2.12344945       2.00108288       0.50879880      -0.93144938       0.33731252       4.01551706       2.04352114       2.04654055      -1.26432694      -0.52383914       0.27246939       0.04724115      -0.62379397       0.13398875       0.18755282
Al       5.85001348       0.08802718       2.05164178       0.95799453      -0.36569447       0.15948221       5.95340811       0.03162249       2.08725122       0.91662291      -0.50624541       0.36317198       0.03351735       0.03087384      -0.19084972       0.17361285
Al       5.81821464       2.02350897      -0.05075101      -0.19628620       0.07932135      -0.35762024       5.86976302       2.08357507      -0.08426326       0.83437678       0.74984912      -0.20081699       0.07681416       0.61855554       0.48124586       0.01786193
Al       3.97608521      -0.02350744       4.10704740       1.14862622       0.98828216      -1.12414610       4.07483749       0.06986907       3.94037738       0.35723326       0.63363552      -1.63762916       0.03866225       0.06167003       0.00089421      -0.41356135
Al       4.04132200       2.25882963       6.08616610      -0.64277651      -0.52277678      -0.80248914       3.95200445       2.21133902       6.00491473      -0.78001702      -0.37314046      -0.59403216       0.04388348      -0.27954623       0.03958843      -0.04696527
Al       5.88438629       0.21169571       5.94593839      -0.37208998      -0.54302082      -0.90577770       5.84453090       0.08595392       5.90239962      -0.26911499      -1.37170471       0.09734589       0.07999952      -0.08467196      -0.63280774       0.31124784
Al       5.95605319       2.04899427       4.03424409      -0.24258360       0.23501102      -0.51914616       5.95260350       2.13761822       3.97292477       0.28067740       1.26299051      -0.35846647       0.03397474       0.03573279       0.41468687      -0.20308017
Al       3.66726827       4.25260094      -0.01712543      -0.19323583      -0.00657871      -0.12548234       3.68530156       4.18007558      -0.03986641       0.52396647      -1.21546930      -0.14864496       0.03450804       0.25181881      -0.45095665      -0.14147599
Al       3.68674645       6.16741885       1.82070582       0.59401500       0.76822016      -1.07221725       3.81931584       6.26340204       1.80370065       1.54213659       0.72698967       0.80205022       0.08952202       0.58631317       0.21810618       0.55014496
Al       5.87357993       4.15570672       1.80044758      -0.26910306      -0.43764425       0.48077314       5.84888074       4.10630791       1.90018533      -0.07328123      -0.26297774       1.11784575       0.04884713      -0.04686557      -0.17392294       0.42586434
Al       5.83499205       6.23210096       0.14140536      -0.82786784       0.77197623      -0.77815488       5.76103369       6.29895696       0.00134643      -0.28490689       0.19891583      -1.45229861       0.04565250      -0.07359525       0.09085860      -0.56401581
Al       3.88455333       4.08134212       3.97606040       0.20324529       0.07666750      -0.88936732       3.94711172       4.13665565       3.92129110       0.86407618       0.87985071      -0.06343360       0.02828660       0.23638067       0.30274784       0.18737591
Al       4.07585748       6.08125445       6.08325588       0.08315181      -0.48203963       0.70594385       4.04006666       6.07397222       6.12701829      -0.75873472       0.25416049      -0.06799732       0.03630349      -0.24525347       0.28672312      -0.06342442
Al       5.92211036       4.23386184       6.00478220       1.02674446       0.31948451       1.21556745       6.06831666       4.22559648       6.15745529       1.29863248      -0.47672669       1.37473293       0.03244335       0.41972778      -0.22465923       0.24167757
Al       6.06428433       6.00489563       3.87848645      -0.02750031       0.05526600       0.66666411       6.01075268       6.05781331       3.97587939      -0.99183551       0.89160377       1.05381230       0.01269668      -0.26389053       0.28686767       0.19018865
32
Lattice="8.1 0.0 0.0 0.0 8.1 0.0 0.0 0.0 8.1" Properties=species:S:1:pos:R:3:momenta:R:3:future_positions:R:3:future_momenta:R:3:energies:R:1:forces:R:3 energy=1.2067622729214191 free_energy=1.2067622729214191 stress="0.004865927576614934 -0.0009958269373668183 -0.0009525419364734271 -0.0009958269373668183 0.004171736914851997 0.0012580806926040262 -0.0009525419364734271 0.0012580806926040262 0.004822069577065045" pbc="T T T"
Al      -0.11607519       0.06098664       0.01451667      -0.97303792       1.07196980       0.96883746      -0.23000223       0.18675712       0.08267759      -1.06394244       0.99164290       0.22238058       0.02034706      -0.05099353       0.22617987      -0.17662365
Al      -0.13381020       2.02633812       1.95209628       0.27270307      -0.34359282       0.39538377      -0.17571742       2.03979115       2.02271874      -0.78203499       0.57167296       0.94046077       0.03140098      -0.53218884       0.29426832       0.11635253
Al       1.88820288       0.29958996       2.01766952       1.22879387      -0.00318669       0.68429296       2.01842496       0.18652766       2.09104255       0.85078808      -1.91572030       0.55687318       0.05916048       0.16221699      -0.71970572       0.04861722
Al       1.82257480       2.15514275       0.05410956      -0.48922141      -0.16883020       1.09963772       1.78255449       2.14234302       0.07559090      -0.24991332      -0.07215887      -0.72671101       0.04723412       0.05911819       0.03506267      -0.48246828
Al      -0.05411940       0.11060140       3.98465569      -0.05938458      -0.78161190      -0.80468317      -0.08530795       0.00055467       3.92238490      -0.25015433      -1.01873644      -0.26965537       0.02219557      -0.31446966      -0.26674107       0.11013507
Al      -0.37054346       2.14535397       5.95249060      -0.44934931      -1.93460143      -0.15397224      -0.30875540       1.98761104       5.96311595       1.52240321      -0.85196261       0.35576578       0.03640678       0.65097859       0.22378875       0.14057555
Al       1.90791234       0.14360662       6.02633524      -0.06228785       0.73607140       0.62124605       1.87846175       0.18707208       6.12460755      -0.46124516       0.09157031       0.96908137       0.01179263      -0.14914374      -0.22825934       0.30709463
Al       1.86104863       2.00818895       4.10275244       0.77650684       0.13511793       0.28012447       1.96932042       2.08311954       4.13614882       1.01260712       0.99504219       0.28639307       0.03728813       0.25946230       0.49444893       0.03021889
Al      -0.17497436       4.17220935      -0.05613780      -0.14482604       0.68875955       0.23024982      -0.19865123       4.24739357      -0.02066470      -0.26534344       0.63889956       0.30173025       0.00787237      -0.05466194       0.04126410       0.13734854
Al      -0.27294162       6.21675050       1.93329734       1.62105586      -0.42055071      -0.07856131      -0.08518971       6.14658137       1.93580114       1.68709861      -0.76488385       0.13622083       0.00376856       0.15224188      -0.18910590       0.07454617
Al       1.97775455       4.04160214       1.92603199      -1.30846065      -0.20461232      -0.74373099       1.83165005       4.07061055       1.88026186      -1.26688562       0.70861463       0.05966884       0.02442258      -0.08831686       0.27355054       0.07883702
Al       1.93507884       6.21680877       0.00826601      -0.71589410      -0.14109960      -0.51952763       1.86362663       6.22305682      -0.02549088      -0.47578067       0.28767864      -0.14476399      -0.00256984      -0.05113022       0.08403210       0.15339204
Al      -0.00242071       4.12076822       3.84123340      -0.45126152       0.11755160       0.51513672      -0.08362521       4.11027301       3.94456428      -0.80071062      -0.27910322       1.27264313       0.02936601      -0.33021388      -0.14916459       0.34532253
Al      -0.08640540       6.10128242       6.07405935      -0.64199629       0.35170640       0.17257838      -0.14500183       6.17039662       6.08011932      -0.37479133       0.92678763       0.03444472       0.01907963       0.03496562       0.15097005      -0.14194325
Al       2.01419074       4.23739311       6.12158619      -0.65263738       0.59229314      -0.39567391       1.92151937       4.24352220       6.08879528      -1.00172063      -0.49965784      -0.07657840       0.01435894      -0.18733856      -0.30535151      -0.03930622
Al       1.80993203       6.08960771       4.03519852       0.59071153       0.09424313       0.87347065       1.89171834       6.14134370       4.09691248       0.63952778       0.76886520       0.30580254       0.02070755       0.26281582       0.28562904      -0.21267318
Al       3.89311503       0.18440419       0.16062740      -0.46508466       0.68495179      -1.26475462       3.85733526       0.21103449      -0.00029899      -0.04339339      -0.17463388      -1.42621636       0.04352033      -0.03159904      -0.25230595      -0.35777813
Al       4.01128078       2.09197643       2.04904627      -1.53100478      -0.23573907      -0.52854285       3.83625184       2.08748862       1.99071425      -1.30518596       0.20701069      -0.43218729       0.05253475      -0.32535702       0.09801738      -0.10313915
Al       5.77211068      -0.02515801       2.06744855       1.27115472      -0.24719577       0.77824213       5.97674194      -0.00592360       2.09116660       1.93423140       0.50012884      -0.38110517       0.08352089       0.75028233       0.34662458      -0.27420778
Al       5.88309187       2.33584388      -0.11990656       0.68892364       1.62423848      -0.38946006       5.98907986       2.44097195      -0.08559496       1.04518453       0.15196036       0.87087803       0.05324785       0.28728651      -0.32602829       0.52024576
Al       3.87583662      -0.07865105       4.01115869       1.17287846      -1.68057378      -0.63210857       3.96324084      -0.17419491       3.98329493       0.49507544       0.20832239       0.07005443       0.03856915      -0.23157976       0.31816543       0.22020138
Al       3.89016078       2.04783659       6.32782209       1.37763341       0.12645798      -0.09226615       4.01290423       2.09762195       6.20686745       0.83130800       0.78028320      -1.94454031       0.04425925      -0.09319987       0.19133848      -0.73348157
Al       5.99561427       0.13771802       6.14747794       0.13612102      -1.24125324      -1.82032675       5.99783976       0.03399639       5.93457453      -0.07729764      -0.68568059      -1.73967285       0.08117959      -0.11160222       0.17385927      -0.29741327
Al       5.82576958       1.86002481       4.03532678       0.56141248       0.31610997       0.21532468       5.87715686       1.95511654       4.05870499       0.23963079       1.32747090       0.06999453       0.04251256       0.08499322       0.41504595       0.12534787
Al       4.00046018       4.32453434      -0.00959303      -0.15043499      -0.15768269       0.51932747       3.96477308       4.27323829       0.04164896      -0.59141196      -0.74557754       0.28294070       0.02723050      -0.04407645      -0.25241105       0.06331145
Al       4.03447751       6.17154490       2.03273969      -0.95659500      -0.49383918       1.23642157       3.87993610       6.08705846       2.12930488      -1.61268731      -0.87656234       0.31595318       0.04793512      -0.46123595      -0.30931629      -0.04610947
Al       5.81290386       4.04920338       2.23825573      -0.58678941      -0.77699695       0.41342610       5.81739857       4.00716379       2.23214480       0.54376581       0.03358208      -0.48912902       0.04054271       0.46615869       0.24745348      -0.32950387
Al       5.92028217       6.33030819      -0.27275161      -2.24041700       0.21620569      -0.11154171       5.75500832       6.28341272      -0.13200404      -0.66753667      -0.87490329       2.41845201       0.11054916       0.28286069      -0.54457360       0.95451892
Al       3.80113406       4.08223450       4.01908561      -0.57466054       0.84496216       0.14670813       3.75153621       4.17093340       4.06616808      -0.17022770       0.67044969       0.64137356       0.03317526      -0.00775027       0.06223823       0.22631665
Al       4.03170402       6.31432697       6.12900616       0.73793923       0.93809384      -0.32104623       3.98466367       6.37328323       6.04603856      -1.44060927      -0.11626151      -0.99938953       0.07128600      -0.72197722      -0.07550001      -0.32254894
Al       5.82660459       4.22595113       5.85574716       1.27939644       0.78384834      -0.80006538       5.97485487       4.25056629       5.80587972       1.23013771      -0.30593155       0.02236856       0.02540789       0.18204191      -0.34415812       0.14710923
Al       5.97743954       6.23246211       4.16029247       0.73811283      -0.49121481      -0.49414651       6.07364357       6.17206930       4.05274881       0.86911395      -0.67820833      -1.50353075       0.02845969       0.15141230       0.00068427      -0.28229468
32
Lattice="8.1 0.0 0.0 0.0 8.1 0.0 0.0 0.0 8.1" Properties=species:S:1:pos:R:3:momenta:R:3:future_positions:R:3:future_momenta:R:3:energies:R:1:forces:R:3 energy=1.134441670966253 free_energy=1.134441670966253 stress="0.005811234881832507 -0.0004426388644999321 -0.0002127209985743597 -0.0004426388644999321 0.005088801408060156 -0.00010433812720019178 -0.0002127209985743597 -0.00010433812720019178 0.005371145104747305" pbc="T T T"
Al      -0.00748331       0.06415659      -0.10515088       0.33530603       0.67922891      -0.46746138       0.00127578       0.12995008      -0.12351469      -0.33298168       0.53167157       0.30133307       0.01954092      -0.05687112      -0.02897834       0.07302917
Al      -0.25066569       1.99167629       1.83387803      -1.18382716      -0.73926940       0.53565233      -0.29613414       1.96875297       1.94620179       0.35951183       0.41292447       1.32024852       0.03876548       0.43916734       0.22252618       0.44768166
Al       1.92062227       0.09897654       2.15767457      -0.55023027      -1.28493317       1.78800518       1.80270397       0.00723791       2.26029252      -1.24839892      -0.28586967      -0.02738605       0.04927328      -0.53769812       0.17867890      -0.41450089
Al       1.98101823       2.05339869      -0.19887520       0.28152253       1.08238489      -1.16780429       1.99737601       2.20071275      -0.22371120       0.14660483       1.52278119       0.77950195       0.05984372      -0.18613031       0.22260089       0.54599604
Al      -0.27125889       0.10989870       4.09326331       0.81088237      -1.31132427       0.20359481      -0.14992554      -0.00226957       4.13403777       1.06601562      -0.64471161       0.44557576       0.00977895       0.39795147       0.09780487       0.14637312
Al      -0.21820567       2.20277976       6.19399767       2.38551094       0.17705609      -0.00101419       0.02698056       2.20542156       6.13251913       1.57161801      -0.05792481      -1.03169188       0.03665532       0.31561875      -0.13605870      -0.40651208
Al       1.94166781      -0.01776325       6.04749028      -2.27603623      -0.81079789       0.83243860       1.70617442      -0.06368387       6.07715094      -1.52705324       0.15646057      -0.36116465       0.01852971      -0.24569238       0.12523965      -0.25756082
Al       1.73768779       2.22811171       4.08726401      -1.01324485       0.55947814       0.07793610       1.64565376       2.23642493       4.05527657      -0.41306951      -0.38256547      -0.64508423       0.00725723      -0.02813659      -0.30727334      -0.24252026
Al       0.12375136       4.04193891       0.07063253      -0.37171676       1.01402103      -0.85919981      -0.00431808       4.17262323      -0.03754400      -1.89421493       1.19469534      -0.97786933       0.06934073      -0.54635567       0.25979973      -0.19977890
Al      -0.28426258       6.29198616       2.08268093       0.04316284       0.03505236      -0.35941477      -0.23057402       6.28011064       2.01218754       0.90521357      -0.28505064      -0.83748828       0.02078141       0.29287262      -0.08474355      -0.22733042
Al       1.94745341       4.23739069       2.03945338      -0.81803331       0.16543053      -0.08212973       1.85314154       4.20803344       2.06073506      -0.76458440      -0.68289742       0.24999666       0.04467576      -0.13845599      -0.28468962       0.29783371
Al       1.83937465       6.05792394       0.00234789      -0.24215431       0.21079482       0.04245574       1.83476068       6.11890416       0.01420730       0.16813837       0.78939969       0.32492715       0.03338335       0.10172536       0.28643271      -0.05449550
Al      -0.39815161       4.29151470       3.87184124      -0.44057558      -0.93211872      -1.50128723      -0.36919254       4.14828473       3.77978769       0.92406419      -1.57594902      -0.05596896       0.04129370       0.45669012      -0.30208917       0.31212742
Al      -0.16737194       6.08095501       5.98692360       1.40147152      -0.06950316      -0.46573390      -0.01524718       6.05901266       5.94995839       1.05235489      -0.46452603      -0.19479321       0.00276588       0.20343602       0.01247183       0.07645913
Al       2.01782535       4.12554418       5.90416954       0.35957123       0.36612265      -0.43591483       2.02561730       4.21730019       5.90985741      -0.17131033       1.10276186       0.45589132       0.03069376      -0.22500507       0.38422017       0.35668446
Al       2.02807825       6.21971918       3.93641803       0.17162955       0.13904383      -0.66794211       1.99284892       6.15805098       3.92240847      -0.62487706      -1.16994975       0.40668622       0.04907137      -0.43307322      -0.45620581       0.30066528
Al       3.68879090       0.00892274       0.10475400      -0.78018542       0.48000982       0.03285111       3.67108368       0.06696549       0.07830629       0.37429497       0.46182281      -0.41250268       0.04575199       0.46446966       0.14123235      -0.27733560
Al       3.94363415       2.06021410       2.00960807      -0.19415098      -1.24216045       0.58744585       3.90136546       1.97009862       2.07841629      -0.62272399      -0.25031088       0.60835009       0.00236830      -0.10648355       0.13547786       0.07104090
Al       5.94462232       0.15088750       2.08723070       0.97094999      -0.49918107      -0.63867145       6.00412783       0.08383515       2.01635595       0.08570300      -0.74392508      -0.52815655       0.04713455      -0.20989220      -0.04131746      -0.11285013
Al       5.91040327       1.95979180      -0.06607424      -0.83046049      -0.11177391       1.07307757       5.80256856       1.98293212       0.05716305      -0.94075738       0.66199029       0.99070709       0.03633740      -0.24992014       0.11659788       0.20998609
Al       3.81206244       0.03750326       3.97282609       0.58049034       0.32359967       0.63548529       3.91013488       0.14301470       4.08808232       0.89642143       1.15490268       1.30394858       0.07440125       0.36861909       0.65755805       0.34384062
Al       3.87977992       2.07577793       6.10235143       0.76569922       0.00132008      -0.46012771       3.93558524       2.08467578       6.03142498      -0.02467855       0.22070453      -0.65913256       0.04112145       0.06060028       0.03502834      -0.22706496
Al       5.82217212       0.20694435       6.03049808       0.01375823       1.01118573       0.01328914       5.86778240       0.26269882       6.06290206       0.91887078      -0.23658131       0.64841650       0.06775939       0.18861943      -0.10454386       0.13900774
Al       5.93403820       2.18152547       4.15520313      -1.17506030      -1.27846467       0.43033582       5.84007230       2.03447872       4.12931728      -0.27409982      -1.18890065      -0.96145673       0.03083382       0.01751455      -0.16324230      -0.37436571
Al       3.92033456       4.18134827       0.18453780       0.84477143       1.30825680       0.32951802       3.98940089       4.29740429       0.12767857       0.30291803       0.68623194      -1.26043958       0.03320759      -0.04547121      -0.05642342      -0.60959678
Al       4.05406407       6.28291439       1.97694083       1.60720790      -0.35887350       0.89349516       4.19569591       6.20837005       2.08448129       0.61525784      -0.67685625       0.99639711       0.03413434       0.01316827      -0.42400378       0.11809224
Al       5.99664151       4.12773750       1.81312580      -0.07227796       1.84444005       0.38509494       5.97826589       4.30231557       1.86996866      -0.21448426       1.02383426       0.59594844       0.04065198      -0.07216618       0.05824893       0.13884503
Al       6.03056973       6.38585791      -0.11442104       0.12758123      -0.10756851       0.24852570       6.03031796       6.33336135      -0.08754785      -0.11196410      -0.73325476      -0.01030354       0.01313646      -0.09971471      -0.32640987       0.20522634
Al       3.99440414       4.05555042       4.01212812       0.16964271       0.13177831       0.48841933       4.01580909       4.10883730       4.03007354       0.13141404       0.69920914      -0.20402288       0.00890359       0.07522656       0.30739670      -0.14277874
Al       4.01116192       6.24997522       6.11309991      -1.72348715       0.69988061      -0.11156018       3.79404517       6.27361530       6.12539326      -1.80014136      -0.12738049       0.16939469       0.04769737      -0.49419704      -0.39001344       0.24942889
Al       5.89862625       4.06871765       6.19243457      -0.00561181      -0.57116336      -1.34363140       5.90376007       4.05660162       6.07652545       0.20636697       0.27274561      -0.70036607       0.00502533      -0.04944171       0.32380197       0.10180670
Al       5.77600504       6.31891472       4.24169217       0.80789448      -0.91195222      -0.03572769       5.89623321       6.17671933       4.18155251       1.24057112      -1.38548210      -0.72949597       0.07432628       0.32902571      -0.45912437      -0.58743375
32
Lattice="8.1 0.0 0.0 0.0 8.1 0.0 0.0 0.0 8.1" Properties=species:S:1:pos:R:3:momenta:R:3:future_positions:R:3:future_momenta:R:3:energies:R:1:forces:R:3 energy=1.2093706371656854 free_energy=1.2093706371656854 stress="0.007407410988113261 0.0004656578095690943 0.0006538620236833514 0.0004656578095690943 0.004624642299740794 -0.0005382928598241434 0.0006538620236833514 -0.0005382928598241434 0.003461704214989553" pbc="T T T"
Al      -0.27652898      -0.06640139       0.18337476       0.10361529      -0.40762202       0.28247104      -0.19497423      -0.03905615       0.12513906       1.26466210       0.73993026      -1.36536595       0.07476069       0.44933984       0.52716262      -0.43602796
Al      -0.18501282       2.26621682       2.16597454      -0.75659931      -0.11364920      -0.07734083      -0.23557306       2.24067691       2.10217192       0.01061233      -0.43053495      -0.88719682       0.03854631       0.06586491      -0.03714967      -0.45925026
Al       2.02498692       0.15078122       1.94614657      -0.39152289      -0.76291567       0.09309782       1.93183216       0.06463816       1.94299421      -1.23493137      -0.66453886      -0.04899960       0.01653308      -0.30822717      -0.09369180      -0.12862927
Al       1.91658703       1.99402394      -0.11085733       0.66027995       0.53134196       0.62296442       1.93635909       2.05134276      -0.02066470      -0.37885499       0.46726565       0.87735540       0.01487025      -0.23282276       0.06475625       0.25171217
Al      -0.05315647       0.24285126       3.81946983      -1.02399432      -0.14814775       0.93764801      -0.19330617       0.17206931       3.96190071      -1.28007451      -1.02790002       1.47174948       0.04829989      -0.34652692      -0.36929899       0.35651836
Al      -0.16562186       1.91012645       6.05744278       1.33778576      -0.19495610      -1.31053416      -0.05768446       1.92951660       5.94084246       0.43238254       0.66387450      -0.56752362       0.00577528      -0.06052091       0.17353690      -0.04384096