70
Lattice="10.807999971766066 0.0 0.0 1.6218268597632721 10.002371653870622 0.0 0.010375679972895423 1.2614665247046482 5.254698274273056" Properties=species:S:1:pos:R:3:cs_iso:R:1:cs_tensor:R:9:cs_iso_core:R:1:cs_iso_para_oo:R:1:cs_iso_para_lq:R:1:cs_iso_para:R:1:cs_iso_dia:R:1:cs_iso_bare:R:1:forces:R:3:cs_iso_local:R:1 cs_iso_shape=6.2 cs_tensor_shape="_JSON [[6.3134, 0.0, 0.0, 0.0, 6.1096, 0.0, 0.0, 0.0, 6.1765]]" NAME=GOHYUX energy=-6766.1643903165705 stress="0.007839229718572918 -0.002759981791289552 0.004414501813878964 -0.002759981791289552 0.0006592371677132063 0.00899335384087863 0.004414501813878964 0.00899335384087863 0.018741433241451208" free_energy=-6766.1643903165705 md=T pbc="T T T"
C        5.58684000       5.51489979       2.45058970     128.06000000     146.01860000      12.21650000     -12.68020000       6.40410000     102.17320000       3.22760000      -9.14300000       1.25090000     135.99750000     200.51000000      -0.26000000      -9.31000000     -59.84000000       4.57000000     -13.80000000       0.89343984      -0.36668739      -0.49555468     121.86000000
C        7.08668994       5.40550014       2.99672983     134.76000000     150.58400000       6.55720000     -13.08770000      -2.96650000     113.70800000       0.71700000     -10.91130000      -2.70570000     139.99910000     200.51000000      -0.29000000      -9.24000000     -57.09000000       4.68000000     -10.00000000      -1.42976553      -0.21820284      -0.58654422     128.56000000
C        4.48139020       5.15400014       3.47358960     124.05000000     113.99560000       2.08300000       8.25180000       5.67430000     113.51310000       1.86750000      -3.25470000      -1.14470000     144.65350000     200.51000000      -0.35000000      -9.30000000     -61.26000000       4.58000000     -16.33000000       0.68716897       0.52066613       0.03880695     117.85000000
C        8.06095007       5.83750995       1.92761976     122.33000000     118.04840000       0.85860000       6.89320000       0.37160000     105.23850000       3.87290000      -1.71890000      -1.18080000     143.69460000     200.51000000      -0.35000000      -9.36000000     -62.11000000       4.58000000     -17.14000000       1.64205046      -0.14393653       0.07692561     116.13000000
C        3.10848995       5.80300973       3.19319981     138.26000000     147.20630000      -5.00370000      -1.31040000      -5.33480000     133.90820000      -8.60770000       7.46580000      -0.92410000     133.66180000     200.51000000      -0.29000000      -9.17000000     -55.33000000       4.72000000      -8.39000000       0.65659444      -0.08283786      -0.34291369     132.06000000
C        9.55157970       5.48746044       2.27056949     124.39000000     134.62520000       0.11060000       0.56300000       3.42440000     123.55860000      -4.76170000       8.10220000       3.03170000     114.99310000     200.51000000      -0.27000000      -9.31000000     -61.31000000       4.59000000     -16.03000000      -0.66803791      -1.10094072       0.52170151     118.19000000
C        2.09662014       5.50594969       4.26365007     132.40000000     114.52720000       4.51790000      -0.14430000       9.10910000     140.00710000       3.41650000       2.66630000       0.94650000     142.67540000     200.51000000      -0.28000000      -9.20000000     -57.86000000       4.69000000     -11.66000000      -0.25890315      -0.59703509       1.12131080     126.20000000
C       10.46439960       5.83061012       1.07855950     129.15000000     113.59070000      14.44910000       2.52510000      16.35570000     135.04320000       0.10470000       2.55300000       2.12430000     138.81080000     200.51000000      -0.27000000      -9.23000000     -59.44000000       4.68000000     -13.30000000      -1.28436322       1.15828789       0.08767745     122.95000000
C        1.94326002       3.98802013       4.54289961     132.16000000     131.27560000       9.33340000       3.39050000       7.39350000     117.55580000       9.84670000      -5.50530000       8.14650000     147.65100000     200.51000000      -0.39000000      -9.23000000     -57.86000000       4.67000000     -11.74000000      -0.11562765       0.70561792      -2.46946540     125.96000000
C       10.55389957       7.39044013       0.87519509     129.08000000     129.51980000       8.58870000      -0.76110000      11.75510000     119.76690000       4.25700000     -11.19660000       2.81970000     137.96090000     200.51000000      -0.34000000      -9.28000000     -59.14000000       4.57000000     -13.43000000      -1.74277060      -1.40150422      -1.02152808     122.88000000
C        3.29880046       3.38209015       4.71031985     132.26000000     142.38680000       0.59860000     -12.71660000      -0.46210000     128.40850000      -3.97820000      -4.04350000       3.18970000     125.97320000     200.51000000      -0.32000000      -9.22000000     -58.05000000       4.76000000     -11.62000000       1.79892426       0.57898878       1.97736062     126.06000000
C        9.05357949       7.87430996       0.68181727     129.30000000     145.65360000      -7.97160000      -5.70360000      -8.17730000     118.65660000      -0.52020000       0.09160000       5.75070000     123.57880000     200.51000000      -0.27000000      -9.26000000     -58.96000000       4.60000000     -13.52000000      -0.04024214      -0.88167293      -1.38481262     123.10000000
C        4.30457997       3.64174046       3.63581984     140.13000000     128.58670000       1.41050000      -3.25290000       6.42590000     144.84960000      -2.65590000       1.66650000      -0.86480000     146.94090000     200.51000000      -0.29000000      -9.14000000     -54.44000000       4.75000000      -7.45000000       0.21020388       0.85679802      -0.25028969     133.93000000
C        8.06990991       7.40878022       1.74310991     133.41000000     111.98490000      -1.05760000      -3.70960000       1.05170000     148.81070000      -1.15570000       0.70030000      -0.21570000     139.42870000     200.51000000      -0.28000000      -9.22000000     -57.28000000       4.66000000     -11.19000000      -0.51154309      -1.16559213      -0.45663923     127.21000000
C        1.07508040       2.37737955       0.44532418     132.46000000     136.52660000       8.78040000     -10.89110000       7.80190000     125.62750000     -15.00290000      -6.97430000     -16.51400000     135.22250000     200.51000000      -0.32000000      -9.16000000     -58.30000000       4.74000000     -11.20000000      -0.67250006      -1.37223144       0.35353260     126.26000000
C       11.35520036       8.97071023       4.85513948     121.54000000     137.28110000      13.17580000     -18.67610000      10.63940000     103.97900000      -0.63180000     -13.67230000      -2.89490000     123.35650000     200.51000000      -0.30000000      -9.32000000     -62.84000000       4.58000000     -17.29000000       0.68046636      -1.31949040      -1.08059892     115.34000000
C       10.38329961       2.30323991       0.19049857     135.31000000     148.23410000      10.83650000      -4.50210000      10.30610000     113.71980000       1.59260000      -6.93810000      -2.80000000     143.98890000     200.51000000      -0.28000000      -9.17000000     -56.70000000       4.67000000      -9.93000000      -0.11453442      -0.52748187       0.58707053     129.11000000
C        2.10997991       9.01494953       5.00270975     134.05000000     146.59720000       9.38770000      -7.86090000       9.14410000     124.61610000      -2.72120000     -11.03150000      -3.66930000     130.93710000     200.51000000      -0.29000000      -9.24000000     -57.01000000       4.59000000     -10.71000000      -0.64653603      -0.60736270       1.69120507     127.85000000
C        9.59372982       1.78110003       1.42264947     132.10000000     150.63630000       9.22750000     -12.13490000       5.92040000     118.13430000      -1.14930000     -11.00400000      -0.83990000     127.53500000     200.51000000      -0.25000000      -9.22000000     -58.30000000       4.64000000     -11.48000000      -0.40145282       0.67159657      -0.32433618     125.90000000
C        2.72711022       9.63540979       3.77947005     136.55000000     149.50900000       8.88380000     -13.63790000       5.41820000     125.50070000      -4.89590000     -19.54960000      -6.16990000     134.63500000     200.51000000      -0.33000000      -9.18000000     -56.01000000       4.68000000      -9.33000000      -1.52338685      -0.86230429      -2.29596118     130.35000000
C        8.06894043       1.78954000       1.10286021     143.68000000     157.75950000       8.06730000      -9.10660000       3.76240000     129.65490000      -1.56940000      -1.25730000       0.52090000     143.62090000     200.51000000      -0.25000000      -9.13000000     -52.69000000       4.63000000      -5.59000000       0.82413601      -0.12358599       0.87855803     137.48000000
C        4.19874047       9.79159944       3.78437039     151.87000000     159.69510000      14.62770000     -13.89790000      21.14920000     146.19970000      -9.37970000      -5.51080000      -5.75810000     149.71100000     200.51000000      -0.29000000      -9.10000000     -48.96000000       4.72000000      -1.21000000       1.05471305       1.00707694       0.67210231     145.67000000
C        7.22083019       1.16185027       2.24274970     153.93000000     159.82470000       9.38830000      -6.74230000      11.46670000     151.18870000      -4.31170000     -10.64120000      -3.50590000     150.78490000     200.51000000      -0.17000000      -9.10000000     -48.68000000       4.66000000       0.52000000       0.90317326      -0.29970912       0.41517762     147.73000000
C        4.91554972      10.09479951       2.45366025     154.87000000     155.45930000      12.66400000      -6.00280000      14.14190000     149.07220000      -6.62160000      -7.75600000      -2.27090000     160.06420000     200.51000000      -0.18000000      -9.11000000     -48.44000000       4.68000000       1.20000000       0.71030016      -0.72439726      -0.50708608     148.67000000
H        5.57159964       4.95659958       1.43142016      28.87000000      29.48030000       1.13820000       0.89180000       1.21970000      25.25210000       2.15660000      -0.08160000       2.50150000      31.86500000       0.00000000       0.00000000       0.00000000       0.00000000       1.07000000      21.60000000      -0.29187189       0.38898040       1.48374841      22.67000000
H        7.27437950       6.01449959       3.87242965      30.41000000      29.85580000       1.22080000       0.60740000       1.83470000      27.36440000       1.66530000       0.47490000       2.15290000      34.02360000       0.00000000       0.00000000       0.00000000       0.00000000       1.17000000      23.04000000      -0.33949875       0.50899538       0.60341631      24.21000000
H        5.43133018       6.55570046       2.18117004      28.94000000      31.81950000       0.61640000      -1.09150000      -0.27290000      30.15100000      -1.61320000      -1.11130000      -2.94160000      24.85310000       0.00000000       0.00000000       0.00000000       0.00000000       1.18000000      21.57000000      -0.05906390       0.53771563      -0.17356489      22.74000000
H        7.26053013       4.37921029       3.33364005      29.20000000      30.21090000      -0.53540000       0.37760000      -0.57780000      30.63440000      -1.96720000       0.34240000      -2.70830000      26.74110000       0.00000000       0.00000000       0.00000000       0.00000000       1.16000000      21.84000000       0.16768992      -0.34370738      -0.16361395      23.00000000
H        4.84912051       5.65776966       4.42172031      29.12000000      31.35780000       1.65580000       1.04540000       1.01380000      25.21720000       2.46730000       0.41930000       2.64420000      30.79390000       0.00000000       0.00000000       0.00000000       0.00000000       1.11000000      21.81000000      -0.28968465      -0.75526155      -0.34120442      22.92000000
H        7.87272983       5.17207976       1.04926009      29.08000000      29.61630000       1.66530000      -0.01420000       1.25450000      27.91670000       2.51960000      -0.83900000       3.95190000      29.71150000       0.00000000       0.00000000       0.00000000       0.00000000       1.13000000      21.75000000      -0.27119893       1.00277137      -0.24508758      22.88000000
H        2.75501972       5.42227956       2.22937048      29.86000000      29.78590000      -0.38280000       2.28320000      -0.46140000      25.99000000      -1.19630000       3.55980000       0.44370000      33.79620000       0.00000000       0.00000000       0.00000000       0.00000000       1.16000000      22.50000000      -0.15633567       0.09354470      -0.35326932      23.66000000
H        9.75719974       6.09303052       3.17747958      29.39000000      28.54760000       0.70680000       2.26480000       0.34000000      27.12310000      -0.15620000       3.11400000       0.85320000      32.50580000       0.00000000       0.00000000       0.00000000       0.00000000       1.14000000      22.05000000       0.49666488      -0.12126428      -0.16979360      23.19000000
H        3.24350025       6.88460952       3.14256974      29.28000000      26.72360000      -1.08340000      -0.71210000      -0.98370000      35.06960000      -0.14240000      -1.70050000      -0.85140000      26.03220000       0.00000000       0.00000000       0.00000000       0.00000000       1.16000000      21.91000000       0.00407726       0.31751838      -0.32773389      23.08000000
H        9.63836038       4.38552000       2.60238050      27.76000000      24.99930000      -1.61990000       0.60550000      -1.66950000      31.46590000      -1.25220000       0.22840000      -1.58210000      26.82740000       0.00000000       0.00000000       0.00000000       0.00000000       1.08000000      20.49000000      -0.07504999       1.34293500      -0.54381557      21.56000000
H        2.45105012       5.96009969       5.21413045      29.56000000      27.09790000      -0.02270000      -1.44560000       0.06060000      30.62890000       3.33870000      -0.41150000       3.57280000      30.95130000       0.00000000       0.00000000       0.00000000       0.00000000       1.14000000      22.22000000      -0.10903509      -0.03365934      -0.12911026      23.36000000
H       10.00979999       5.46329051       0.13730267      29.85000000      27.86830000       0.17180000      -0.84810000       0.18240000      30.56600000       2.97750000      -0.25290000       3.25450000      31.11410000       0.00000000       0.00000000       0.00000000       0.00000000       1.14000000      22.51000000      -0.05749090      -0.15083351       0.19914891      23.65000000
H        1.10573946       5.93085972       4.05494975      28.36000000      30.32680000      -3.13280000       0.71610000      -3.26600000      28.48280000      -0.47650000       0.58620000      -0.34730000      26.27330000       0.00000000       0.00000000       0.00000000       0.00000000       1.15000000      21.01000000       0.04825549       0.14766848      -0.12105037      22.16000000
H       11.41239954       5.35257012       1.13845960      28.65000000      30.13110000      -3.45060000      -0.81330000      -3.18050000      28.78370000      -0.00890000      -1.09140000       0.13300000      27.03950000       0.00000000       0.00000000       0.00000000       0.00000000       1.20000000      21.25000000       1.19829014      -0.28960597       0.25200102      22.45000000
H        1.48385950       3.58522975       3.57674979      29.09000000      28.86330000       1.62550000       2.20930000       1.52760000      27.67560000       2.28910000       1.72860000       2.31120000      30.71890000       0.00000000       0.00000000       0.00000000       0.00000000       1.11000000      21.78000000       0.29651376       0.01773084       0.80095520      22.89000000
H       10.93810019       7.80105010       1.80713002      29.49000000      28.59940000       1.78820000       2.09770000       1.46560000      28.56890000       2.84540000       1.73810000       2.24100000      31.29700000       0.00000000       0.00000000       0.00000000       0.00000000       1.16000000      22.13000000       0.46711751       0.51105303       0.07893518      23.29000000
H        3.29268962       1.09208031      -0.23666278      29.05000000      25.48960000       0.21360000      -0.83850000      -0.24580000      33.62640000      -2.09350000      -0.86080000      -2.33280000      28.03380000       0.00000000       0.00000000       0.00000000       0.00000000       1.19000000      21.66000000      -0.44232282      -0.97806770      -0.19721081      22.85000000
H        8.98154957      10.21749949       5.75787012      28.54000000      25.64590000      -1.48840000       0.01350000      -1.45440000      33.66680000      -0.40400000      -0.38800000      -0.47440000      26.29240000       0.00000000       0.00000000       0.00000000       0.00000000       1.15000000      21.19000000       0.24815928       0.08019605       0.21609685      22.34000000
H        3.76687981       2.58008035       0.37970557      29.03000000      29.10900000       0.50060000       1.09830000       0.77430000      25.52160000      -1.09710000       2.43250000      -0.44970000      32.47260000       0.00000000       0.00000000       0.00000000       0.00000000       1.11000000      21.72000000      -0.53516767      -0.04522622      -0.37071939      22.83000000
H        8.64984016       8.67364046       4.96661968      28.65000000      27.92390000       0.82230000       0.67120000       0.89470000      25.41440000      -0.85310000       1.79500000       0.33650000      32.61090000       0.00000000       0.00000000       0.00000000       0.00000000       1.09000000      21.36000000       0.79991185       0.41815496       0.78733067      22.45000000
H        3.90582962       3.26336967       2.70072033      30.22000000      28.59860000       0.99580000      -0.91290000       0.85430000      29.87750000       3.28830000       1.09770000       3.85330000      32.17350000       0.00000000       0.00000000       0.00000000       0.00000000       1.17000000      22.84000000      -0.01498105      -0.25767544      -0.71107612      24.02000000
H        8.30936006       7.86852012       2.70730024      29.97000000      28.19810000       0.55220000      -1.75960000       0.82580000      30.14080000       2.53970000      -0.22170000       2.82480000      31.57540000       0.00000000       0.00000000       0.00000000       0.00000000       1.16000000      22.62000000       0.01382199      -0.09990150       0.37836997      23.77000000
H        5.28248024       3.17472030       3.80640034      28.87000000      32.71630000      -2.70140000      -0.14580000      -3.05600000      28.85340000      -0.94480000      -0.36220000      -1.05360000      25.03510000       0.00000000       0.00000000       0.00000000       0.00000000       1.15000000      21.52000000      -0.04647577      -0.21087468       0.17286606      22.67000000
H        7.04866955       7.71764044       1.48063007      28.21000000      32.61220000      -1.66530000       0.22270000      -2.39180000      28.35860000      -1.87600000       0.08670000      -2.10570000      23.66540000       0.00000000       0.00000000       0.00000000       0.00000000       1.15000000      20.86000000       0.01510317       0.26403070      -0.05975038      22.01000000
H        1.48827997       1.37215990       0.76082483      28.34000000      28.64360000      -1.40810000      -0.73710000      -2.02980000      29.18720000      -3.14080000      -0.10520000      -5.09630000      27.19850000       0.00000000       0.00000000       0.00000000       0.00000000       1.11000000      21.03000000      -0.85056335       0.75088451       0.34722208      22.14000000
H       11.10810030       9.95620961       4.49775027      29.43000000      28.85150000      -0.43030000      -1.25630000      -0.32690000      31.19540000      -1.87290000      -1.17260000      -2.94600000      28.23940000       0.00000000       0.00000000       0.00000000       0.00000000       1.19000000      22.04000000      -0.35759571       0.87774634      -0.09630041      23.23000000
H        1.14273956       3.11039973       1.23635954      29.52000000      28.92540000       1.15350000       0.99210000       0.54420000      28.79740000       1.94470000       0.09310000       2.97370000      30.83170000       0.00000000       0.00000000       0.00000000       0.00000000       1.18000000      22.14000000       0.70587298       0.26720652       0.74384868      23.32000000
H       11.02820000       8.28978029       3.91983030      27.70000000      25.68870000       1.22250000       1.15290000       1.40050000      26.87920000       1.87830000       0.88170000       2.03250000      30.52510000       0.00000000       0.00000000       0.00000000       0.00000000       1.03000000      20.47000000       0.56154564       0.91290232       1.98916713      21.50000000
H       10.18959972       2.92995044       4.56623948      29.68000000      28.28060000       1.41980000       1.02940000       1.18460000      28.57980000       2.33270000       0.25080000       2.56850000      32.16630000       0.00000000       0.00000000       0.00000000       0.00000000       1.15000000      22.33000000      -0.09280551      -0.06081765       0.05643880      23.48000000
H        2.24587970       8.33070046       0.70443518      28.70000000      27.33080000       1.88080000       1.12010000       1.53150000      27.51310000       3.03670000       0.43570000       2.79480000      31.25330000       0.00000000       0.00000000       0.00000000       0.00000000       1.12000000      21.38000000       0.22164992       0.10656194      -0.68374169      22.50000000
H       10.01950017       4.56605034       5.21360950      29.12000000      28.42540000      -1.12330000       0.00020000      -0.86760000      31.64900000      -0.84700000       0.25230000      -1.92740000      27.29300000       0.00000000       0.00000000       0.00000000       0.00000000       1.16000000      21.76000000      -0.08659450       0.18667006      -0.16028720      22.92000000
H        2.59562009       6.75334960       0.02954367      28.07000000      26.02090000      -1.27370000       0.27560000      -1.58290000      31.72220000      -1.03340000       0.07720000      -1.29800000      26.45390000       0.00000000       0.00000000       0.00000000       0.00000000       1.08000000      20.79000000      -0.74726594       0.99586719      -0.72029121      21.87000000
H        9.91256042       0.79799247       1.72889955      29.95000000      28.88390000      -1.38390000       0.91380000      -1.14740000      32.57670000      -1.97150000       0.69860000      -2.28780000      28.39370000       0.00000000       0.00000000       0.00000000       0.00000000       1.18000000      22.57000000       0.27912744      -0.91541248      -0.16650387      23.75000000
H        2.19199966      10.55700038       3.40320033      28.69000000      28.44290000      -1.99600000       1.28140000      -1.42650000      30.63360000      -2.58390000       1.30160000      -2.88230000      26.99920000       0.00000000       0.00000000       0.00000000       0.00000000       1.11000000      21.39000000       0.49078297      -0.23300802       0.87049557      22.49000000
H        9.81466047       2.38682034       2.34693990      28.98000000      26.92150000       0.61920000       1.09530000       0.90030000      29.28160000       2.35700000       1.03500000       2.54330000      30.74450000       0.00000000       0.00000000       0.00000000       0.00000000       1.11000000      21.67000000      -0.25538048      -0.05412404      -0.71133477      22.78000000
H        2.43066948       8.95692030       2.92033997      28.76000000      26.84230000       1.79900000       0.49930000       1.79830000      28.64660000       2.59820000       0.05710000       2.11510000      30.79090000       0.00000000       0.00000000       0.00000000       0.00000000       1.12000000      21.44000000       0.30299191       0.07880585       0.46204061      22.56000000
H        7.91206987       1.31816962       0.10193349      29.30000000      27.61870000       1.13000000       1.13870000       1.64510000      27.70060000       1.15520000       1.12170000       1.61080000      32.59510000       0.00000000       0.00000000       0.00000000       0.00000000       1.12000000      21.98000000      -0.11084771      -0.05436212       0.57895895      23.10000000
H        4.34697002      10.53340004       4.61926029      28.29000000      26.13530000       2.69480000       1.85390000       2.41850000      29.57720000       4.02390000       1.07300000       4.37030000      29.16610000       0.00000000       0.00000000       0.00000000       0.00000000       1.12000000      20.98000000       0.46887383       0.27418887      -0.99510434      22.09000000
H        7.85906960       2.84592040       0.97223364      29.55000000      28.72670000      -1.64810000       0.14870000      -1.78820000      33.19820000      -0.39420000      -0.38110000      -0.99790000      26.72530000       0.00000000       0.00000000       0.00000000       0.00000000       1.17000000      22.18000000      -0.57640405       0.50384366      -0.09083142      23.35000000
H        4.72477015       8.98145014       4.25508041      29.99000000      29.66400000      -2.25530000       0.05420000      -2.95260000      30.41780000      -3.04060000       0.18160000      -3.69810000      29.87870000       0.00000000       0.00000000       0.00000000       0.00000000       1.19000000      22.60000000      -0.00021109      -1.33677773       0.12806485      23.79000000
H        7.41441984       1.57353023       3.27935038      29.21000000      26.53100000      -0.39180000       0.21270000      -0.64200000      28.08240000       1.85320000       0.08680000       1.75170000      33.02170000       0.00000000       0.00000000       0.00000000       0.00000000       1.09000000      21.92000000       0.04290297       0.18809034      -0.96986793      23.01000000
H        4.69165984       9.45292968       1.53990979      29.12000000      26.51340000       0.15540000       0.97760000       0.18600000      28.18030000       2.61690000       1.09390000       2.33070000      32.66840000       0.00000000       0.00000000       0.00000000       0.00000000       1.08000000      21.84000000      -0.32332676      -0.04081189       1.24154149      22.92000000
H        9.15024948      10.09419966       2.36695956      29.21000000      25.13990000       0.41030000      -0.21220000      -0.43740000      35.31440000      -0.55280000       0.04700000      -0.93560000      27.16460000       0.00000000       0.00000000       0.00000000       0.00000000       1.11000000      21.89000000      -0.49908378       0.42537668      -0.25957395      23.01000000
H        3.06070022       1.06467987       2.06375949      29.57000000      24.98090000       0.13680000       0.02250000      -0.74420000      33.02360000      -4.14290000       0.98060000      -4.90640000      30.69190000       0.00000000       0.00000000       0.00000000       0.00000000       1.18000000      22.19000000       0.02354411       0.98033952       0.04725688      23.37000000
H        6.14859012       1.26380970       2.06259980      29.27000000      36.50260000      -0.30730000      -0.22740000       1.07120000      26.17140000      -0.48220000      -1.55870000      -0.56920000      25.12660000       0.00000000       0.00000000       0.00000000       0.00000000       1.14000000      21.92000000      -0.19104531      -0.21861396      -0.07581823      23.07000000
H        6.03203017       9.98556954       2.53947037      28.85000000      35.53870000      -0.54120000      -0.79600000       0.64080000      25.71930000      -0.04810000      -2.02190000      -0.33660000      25.28350000       0.00000000       0.00000000       0.00000000       0.00000000       1.10000000      21.54000000      -0.72510277       0.31616753       0.19305437      22.65000000
88
Lattice="8.257999781797603 0.0 0.0 4.28335016482038 15.721959852576237 0.0 2.8584570764705495 1.484507588774628 17.704391796194134" Properties=species:S:1:pos:R:3:cs_iso:R:1:cs_tensor:R:9:cs_iso_core:R:1:cs_iso_para_oo:R:1:cs_iso_para_lq:R:1:cs_iso_para:R:1:cs_iso_dia:R:1:cs_iso_bare:R:1:forces:R:3:cs_iso_local:R:1 cs_iso_shape=2.42 cs_tensor_shape="_JSON [[2.6762, 0.0, 0.0, 0.0, 1.9428, 0.0, 0.0, 0.0, 2.6485]]" NAME=KINFES energy=-11748.748203476796 stress="0.0016379931855158218 0.00020015836011348046 0.0003764446222317752 0.00020015836011348046 0.001966693611757226 -4.2235250299174776e-05 0.0003764446222317752 -4.2235250299174776e-05 0.0010017099581826018" free_energy=-11748.748203476796 md=F pbc="T T T"
C        9.46097977       2.69968960       8.31716009     128.90000000     132.70590000      -4.60030000      -1.40890000      -0.78190000     130.35290000     -10.53300000      -4.52300000      -3.17700000     123.63080000     200.51000000      -0.45000000      -9.30000000     -58.30000000       4.64000000     -10.61000000      -0.04496731       0.01147792      -0.07327207     126.48000000
C        5.93882973      14.50679931       9.38723996     128.89000000     132.70210000      -4.60090000      -1.41100000      -0.78270000     130.35450000     -10.53210000      -4.52540000      -3.17500000     123.62640000     200.51000000      -0.45000000      -9.30000000     -58.31000000       4.64000000     -10.61000000       0.04531569      -0.01357722       0.07405728     126.47000000