36
Lattice="10.17896035 0.0 0.0 0.0 10.17896035 0.0 0.0 0.0 6.785973567" Properties=species:S:1:pos:R:3:forces:R:3 class=3 scale=1.0936659901056818 fps_idx=-1 name=654 energy=-295.5983349 stress="0.23889555934780998 -0.00207471508249835 0.006845643518704877 -0.00207471508249835 0.2384006576062004 0.0015937943213307935 0.006845643518704877 0.0015937943213307935 0.23851844112491494" free_energy=-295.63442729 pbc="T T T"
Ru       8.48247000       1.69649000       5.08948000      -0.12982700       0.36181500       0.24203200
Ru       3.39299000       6.78597000       3.39299000      -0.38140600       0.11691800      -0.11230400
Ru       8.48247000       8.48247000       5.08948000      -0.13502500       0.17453200       0.10926100
Ru       1.69649000       1.69649000       5.08948000       0.38167900       0.10245300      -0.17445700
Ru       1.69649000       8.48247000       5.08948000       0.57463300       0.09994000       0.02340500
Ru       8.48247000       5.08948000       5.08948000      -0.04747600      -0.50482100      -0.10396300
Ru       5.08948000       5.08948000       5.08948000      -0.12825700      -0.18877800       0.12089700
Ru       0.00000000       3.39299000       0.00000000      -0.17462300      -0.43186100      -0.22794400
Ru       1.69649000       5.08948000       5.08948000       0.14677400      -0.20374700      -0.33646500
Ru       1.69649000       1.69649000       1.69649000      -0.01867200       0.09525000       0.29862700
Ru       5.08948000       1.69649000       1.69649000       0.17631100      -0.02017200       0.17527900
Ru       0.00000000       6.78597000       3.39299000      -0.03016500      -0.46664600       0.00804200
Ru       6.78597000       0.00000000       3.39299000      -0.32422200       0.05867500       0.06183000
Ag       6.78597000       6.78597000       3.39299000      -0.25876600      -0.06087900       0.32704800
Ag       0.00000000       0.00000000       3.39299000       0.16669900       0.14996000       0.13023000
Ag       0.00000000       6.78597000       0.00000000       0.44722300      -0.04459100      -0.21752100
Ag       3.39299000       3.39299000       0.00000000      -0.19921000       0.16848600       0.19999100
Hf       8.48247000       5.08948000       1.69649000      -0.12812600      -1.30571600       0.08735800
Hf       3.39299000       0.00000000       0.00000000      -1.00006500      -1.79502600       0.98678900
Hf       5.08948000       1.69649000       5.08948000       1.45855000       0.79074400      -1.38070300
Hf       8.48247000       8.48247000       1.69649000      -0.34849900       1.03554700      -0.50399400
Ir       6.78597000       6.78597000       0.00000000       0.07768500       0.16412800       0.18465300
Ir       3.39299000       6.78597000       0.00000000       0.28476700       0.14304000       0.04170600
Ir       8.48247000       1.69649000       1.69649000      -0.32584700       0.18326200      -0.15463400
Ir       5.08948000       5.08948000       1.69649000      -0.03131100      -0.16695400      -0.07494500
Ir       6.78597000       3.39299000       3.39299000       0.06062700      -0.13454200       0.13316800
Ir       6.78597000       0.00000000       0.00000000       0.07864400       0.17272300      -0.15694000
Ir       0.00000000       0.00000000       0.00000000      -0.42713800       0.36124800      -0.14929400
Ir       1.69649000       8.48247000       1.69649000       0.37986100       0.01566900      -0.17221400
Ir       1.69649000       5.08948000       1.69649000      -0.07261900       0.07827600       0.17032800
Ir       3.39299000       3.39299000       3.39299000      -0.08279200       0.14605800       0.16004900
Ir       5.08948000       8.48247000       1.69649000      -0.21679000       0.27509300      -0.05191800
Ir       6.78597000       3.39299000       0.00000000       0.33245300      -0.14503600      -0.11472300
Ir       0.00000000       3.39299000       3.39299000      -0.08648300       0.51844200      -0.08246900
Ir       3.39299000       0.00000000       3.39299000       0.35128200      -0.24542700       0.38977100
Ir       5.08948000       8.48247000       5.08948000      -0.36987100       0.50193500       0.16402600
36
Lattice="8.470538482 0.0 0.0 0.0 8.470538482 0.0 0.0 0.0 5.647025655" Properties=species:S:1:pos:R:3:forces:R:3 class=3 scale=0.9140462950723837 fps_idx=-1 name=4599 energy=-232.43740238 stress="-0.5551028322682163 0.010617643385350291 -0.010828831088133675 0.010617643385350291 -0.553487985336604 0.009739993579614217 -0.010828831088133675 0.009739993579614217 -0.5563721180470742" free_energy=-232.44483553 pbc="T T T"
Sc       7.06356000       4.20968000       1.36018000      -0.71162000      -1.09016300       2.76741400
V        0.01672000       8.42286000       2.84840000      -0.09835200       0.30749700      -1.52562900
V        5.63776000       5.81834000       2.96876000       0.85988500      -5.65072700      -2.17141700
V        8.44912000       2.70401000       2.82385000       1.36272600       2.96979900       1.29613600
V        7.09000000       4.17781000       4.21865000       0.96721700       0.46987100      -1.77875000
Fe       0.08512000       2.91440000       5.59498000      -2.11761200      -3.25009100       0.34717100
Fe       8.43908000       5.56381000       2.84604000      -0.63359400      -0.96347200       0.92870800
Fe       4.35253000       4.25208000       1.54113000      -1.23466800       1.91980300      -0.22488900
Fe       2.84223000       5.58915000       2.84549000      -0.00008000       0.80950600      -0.96728700
Fe       2.81595000       8.39327000       2.81460000      -0.31152100       0.68495800       0.94247300
Zn       4.27857000       1.42065000       4.26019000      -1.52016300      -0.18062800      -0.25500100
Zn       2.98135000       0.01215000       5.57873000      -2.80748500      -1.99925900      -0.90651300
Zn       2.78437000       5.63597000       0.12477000       1.55460000       1.11119400      -0.50873900
Zn       1.38303000       1.38437000       4.24612000       0.50826200      -0.70991600       1.12463600
Zn       1.37913000       7.13745000       4.05508000       1.33349500      -1.79565400       2.21312200
Zn       8.39640000       0.15374000       0.04578000       1.16709300      -1.46426600      -1.80520900
Rh       5.71683000       2.86513000       2.88028000      -3.59406400       2.94564700      -1.09423700
Rh       4.36513000       7.05475000       4.11228000      -8.03178500      -2.88356200       2.13389500
Rh       7.11786000       7.21933000       4.12523000       3.44166300      -3.13284900       3.22760400
Rh       7.04075000       1.49046000       4.11244000       5.49776600      -2.20632800       3.57446100
Rh       5.60416000       0.03868000       2.96491000       0.21923900       4.04123400      -4.95542500
Rh       4.31374000       7.07469000       1.50923000      -4.07193500      -1.42833600      -0.93999200
Rh       5.68337000       2.79417000       5.60472000       0.27032700       1.43269600       1.27176200
Pd       2.87215000       2.82752000       0.00653000      -0.66375500      -1.69798100       0.19426000
Pd       1.24012000       6.94337000       1.34469000       3.37882000       2.82304000       0.68041400
Pd       4.23260000       4.23165000       4.39253000      -1.48400300       2.67374900      -3.32611100
Pd       5.58330000       0.01089000       5.54795000       2.73698500       0.60196700       1.40577200
Pd       1.34732000       4.21178000       1.41646000       2.23652700      -0.42942200       3.00877900
Pd       4.18748000       1.33186000       1.29788000       0.52781000      -0.46777600       3.51233100
Hf       6.98023000       6.92740000       1.39853000       2.42551700       5.21544500       2.35890800
Hf       6.99595000       1.50886000       1.45391000       0.34210500      -2.77586800      -2.48987000
Hf       8.43312000       5.45272000       0.03649000       0.20167500       3.87916900      -4.45817700
Hf       5.57737000       5.67304000       5.60593000      -0.98899200      -1.42553300       0.79527200
Hf       2.92739000       2.77952000       2.75245000       0.67670700       2.00634900       0.60049400
Pt       1.42862000       1.36752000       1.45982000      -1.50382300      -1.85238900      -0.84318000
Pt       1.46312000       4.21481000       4.30096000       0.06503600       1.51229500      -4.13318500
48
Lattice="8.182103461 0.0 0.0 0.0 8.182103461 0.0 0.0 0.0 12.273155192" Properties=species:S:1:pos:R:3:forces:R:3 class=3 scale=0.9498863707029109 fps_idx=-1 name=2510 energy=-352.70544158 stress="-0.11205496801617043 -0.003212348709363966 0.007141647088999891 -0.003212348709363966 -0.12916693285454786 -0.011578623579426031 0.007141647088999891 -0.011578623579426031 -0.12328456640527706" free_energy=-352.70655496 pbc="T T T"
Ti       6.07931000       6.15929000       4.03516000       0.86877500      -1.56169600      -0.81191300
Ti       0.00293000       8.11661000       8.18260000      -1.33223800      -0.88222000       1.77454300
Ti       8.17795000       3.97600000       8.22427000      -0.53979700       0.84738500      -1.10285100
Ti       0.06540000       4.15437000       4.14571000      -0.90895500      -1.25799200      -1.40517100
Ti       3.99524000       4.10160000       4.10883000       0.97886800      -1.80310400       0.12705100
Ti       4.17200000       2.00901000       2.11964000       1.11428500       1.52070300       1.31999000
Fe       6.16487000       4.08145000       2.02554000       0.78506700       0.00049900       0.64427700
Fe       6.26746000       0.01908000      10.32914000      -0.10338800       0.10852600      -0.83000900
Fe       0.01862000       4.13851000      12.18130000      -0.56093100      -0.53258400       0.82349200
Fe       2.07800000       2.11482000       4.18724000       0.51563900       0.37520800       0.19093300
Fe       1.94952000       4.20131000       5.90533000       0.12927500      -0.68762800       0.34013600
Fe       2.02241000       6.14658000       8.25776000      -0.42131700      -0.28048200      -0.65316500
Fe       6.10795000       2.10450000       8.20943000       0.43636800      -0.16403800      -0.00424100
Fe       6.08072000       6.08797000       8.14604000      -0.06797500       0.11946000       0.61889500
Fe       6.25459000       1.99802000       0.04060000       0.04963300       0.55046100      -0.10681700
Fe       6.16302000       2.07005000       4.08680000      -0.60655100       0.53305800      -0.31721600
Fe       0.01753000       6.06919000       2.03629000      -0.60322400      -0.65250700       0.14070700
Y        4.12581000       0.10505000       0.09457000       0.80491400      -0.22312000      -0.38651500
Y        1.97156000       0.05513000       2.18999000       0.18540500      -0.00286300       0.06330500
Y        6.13081000       6.17762000      12.19179000       1.11087400      -0.37505900       0.72909900
Y        1.98358000       6.03523000       4.16697000      -0.58503100       0.15197000      -0.52383800
Y        0.00181000       1.97054000       6.08471000      -0.16822600       2.06123900      -0.47612300
Y        8.11645000       6.07315000       6.21688000       0.75253700      -0.62994800       1.68300500
Y        4.21643000       4.04821000       0.10661000       1.79894400      -1.16574700       0.20136000
Y        2.05583000       0.05831000      10.25821000      -0.96296700      -0.95357500      -1.11133600
Y        6.21120000       8.15295000       6.17183000      -1.71006100       0.54362400       0.62271600
Y        8.18034000       6.01042000      10.24525000      -0.82788100       0.54755700      -1.75278900
Y        4.08030000       4.04863000       8.25740000       0.23046200       0.36816300      -2.14277800
Y        0.14204000       0.03016000       0.00589000      -1.68623800      -0.63646700      -0.31242200
Y        4.11090000       1.97359000      10.33084000       2.67378300      -0.54574300      -0.75713700
Y        6.07663000       8.12095000       2.03710000       1.73136400       0.59029600       0.62307300
Y        1.98000000       1.94504000       8.14578000      -0.37478700       1.88758200      -0.01435500
Y        4.05783000       6.05414000       2.07640000       1.11750500      -0.80977800       0.40469400
Y        2.10470000       4.13135000       1.92365000      -2.93525800      -1.29050100       1.42612600
Y        8.07673000       1.89777000       2.04405000      -1.30710000       4.02333600       0.74248800
Zr       6.16898000       4.19227000       6.07591000      -0.26121400      -1.33786700       0.16652700
Zr       4.05257000       6.08972000       6.08519000      -0.16383100      -0.66216100       0.95210400
Zr       4.06046000       2.10598000       6.07524000       0.20631100       0.59743600      -1.60142200
Zr       2.14282000       4.23976000      10.19569000      -1.67981400      -1.10494700      -0.14605900
Zr       6.06226000       4.06691000      10.33828000       1.80157600      -1.30937400      -0.91261900
Zr       4.00108000       8.16450000       8.17074000       2.86559000      -0.83650700       0.47508000
Zr       2.12539000       6.09336000      12.23264000      -1.16917500       0.23664600       0.64279600
Zr       4.09772000       8.10282000       3.93642000       0.20825100       1.96857300       2.32380800
Zr       2.14156000       2.10078000       0.02299000      -1.43235800       1.14352300      -0.20156600
Zr       4.05712000       6.16297000      10.10970000       1.53670700       1.89256300      -0.53250200
Zr       8.04705000       2.07642000      10.17236000      -1.40950600       0.17752400       0.86417600
Zr       0.04437000       8.17222000       4.16041000      -0.41756300      -0.22497900      -1.08483300
Zr       2.05366000       8.10143000       6.27713000       0.33325000      -0.31444200      -0.71270200
36
Lattice="9.883640051 0.0 0.0 0.0 9.883640051 0.0 0.0 0.0 6.589093367" Properties=species:S:1:pos:R:3:forces:R:3 name=527 energy=-171.17145311 stress="0.13263293649478775 0.0015481251990567058 -0.001552544187517831 0.0015481251990567058 0.13087043418178432 -0.0017256149940694482 -0.001552544187517831 -0.0017256149940694482 0.1296045812329457" free_energy=-171.2460493 pbc="T T T"
Ti       4.89143000       8.23478000       5.05098000       0.57862800       0.42604200       0.34052700
Ti       9.87294000       0.03866000       0.03729000       0.43869700       0.36324800       0.59601000
Ti       4.85292000       1.64484000       4.97127000       1.13751700       0.13176000       0.13112400
Co       5.07027000       4.94643000       5.12986000      -0.16756400      -0.59735600      -0.88502600
Co       8.14137000       1.52126000       1.76087000       0.81293800       0.04966400       0.07060300
Co       9.84968000       6.74687000       3.37568000       0.52191800       0.37189500      -0.41762100
Co       8.17908000       1.48837000       4.84918000       0.55991000       0.19618300       0.23507900
Co       1.75338000       1.53479000       5.00266000      -1.03709800       0.21075500      -0.01777500
Co       6.61490000       9.85740000       6.51423000      -0.31378800       0.36901600      -0.49094000
Co       9.85835000       3.21962000       0.00376000       0.09747500      -0.88558100       0.00827300
Co       0.06086000       6.54001000       0.03242000       0.10241300       1.07896300       0.19957300
Co       1.56560000       8.38701000       1.67967000      -1.32177700       0.13335200       0.01444700
Co       6.54694000       3.34589000       3.18848000      -0.39547400      -0.84240900       0.39284300
Co       8.20098000       8.23716000       1.52705000       0.94468700       0.31992800      -0.34519200
Co       9.88332000       3.48283000       3.33143000      -0.26977300      -1.06895500      -0.15108700
Co       0.07841000       0.19616000       3.10368000       0.21241700       0.21671900      -0.31093700
Co       4.85281000       1.66007000       1.56779000       0.40990000      -0.07217200       0.10313100
Co       1.72314000       1.55411000       1.62807000      -1.10408100      -0.27142400       0.00568200
Co       1.56151000       8.23161000       4.95778000      -0.70074600      -0.08723900       0.03510500
Ag       3.40556000       6.56819000       3.24242000      -0.02857600       0.58145100       1.01078900
Ag       8.21158000       4.91596000       4.93151000       0.56608500      -0.48261500       0.03282700
Ag       6.70010000       6.50587000       3.31648000      -0.66927000       0.54460200       0.43538200
Ag       6.66474000       3.09976000       0.04300000       0.09615600      -0.21960600       0.02482200
Ag       3.20348000       3.16919000       6.57527000      -0.13323000       0.28096100       0.08876500
Ag       1.85178000       4.99397000       1.89072000      -1.70297600      -0.22670900      -0.85133600
Ag       6.69395000       0.06959000       3.29218000      -0.47879000      -0.20103000      -0.13586100
Ag       8.34931000       8.28672000       4.89456000       0.07447700       0.05393400       0.26185400
Ag       4.99244000       8.21976000       1.73138000       0.22351000       0.50653600      -0.35627500
Ag       3.20156000       0.07012000       3.40094000      -0.13686800      -0.30965700      -0.42992700
Ag       4.91896000       4.96943000       1.54659000       0.44820000      -1.06410400       0.52220200
Ag       3.35163000       6.45008000       0.04342000      -0.74554400       0.78062500      -0.65683400
Ag       6.52382000       6.43099000       6.51782000       0.29525100       1.27218200      -0.15934500
Ag       1.49305000       4.99444000       4.93981000      -0.17346600       0.03636500       0.03964300
Ag       8.04772000       5.07815000       1.60302000       1.49569600      -0.80272000       0.04549400
Ag       3.18478000       0.00575000       6.53131000       0.00262300      -0.28013000       0.42936900
Ag       3.28501000       3.32146000       3.36929000       0.36052400      -0.51247600       0.18461300
48
Lattice="7.17941738 0.0 0.0 0.0 7.17941738 0.0 0.0 0.0 10.76912607" Properties=species:S:1:pos:R:3:forces:R:3 name=712 energy=-297.34150755 stress="-0.19552168339816534 -0.020412056683033083 -0.008598065794469993 -0.020412056683033083 -0.20278676257163872 -0.007518478202475092 -0.008598065794469993 -0.007518478202475092 -0.19521058785880394" free_energy=-297.34652158 pbc="T T T"
V        7.11718000       7.11129000       7.18645000       1.79158300       0.33415000       1.92658200
V        1.84239000       1.74629000       3.62451000      -1.57853500       1.32765800       0.59399900
Co       7.00040000       1.72838000       1.66946000       2.39490300       0.11479600       2.90189300
Ni       5.30558000       7.15008000       8.94637000       0.80961600      -0.05160300      -0.96203300
Ni       5.32352000       3.59696000       8.98374000      -0.39508900       0.50432400      -0.45463700
Ni       3.57677000       1.77579000       8.95092000      -0.52971800       0.53371300      -0.76224800
Ni       3.61419000       3.62694000       7.19572000      -0.45087100      -0.58329600       0.43082400
Ni       7.03560000       7.14007000       3.72586000       0.97577400       0.52731200      -1.42999400
Ni       3.62360000       5.36291000       8.86829000       0.38819100       0.52322800       0.72481000
Ni       1.80336000       3.75544000       8.97631000       1.05306300      -1.75691700       0.18744200
Ni       0.14380000       5.39523000       8.91598000      -2.34231200       0.30886000       0.52227100
Ni       3.57701000       5.29785000       5.44087000       0.22962200       0.49758200       0.19986700
Ni       1.81301000       7.10648000       8.96311000       0.06175500       1.32211000      -0.20679200
Ni       5.40925000       1.85474000       3.66549000       0.49396800      -0.75501800      -0.77806000
Ni       0.00978000       3.52374000       3.68158000      -0.21729000       0.49814500      -1.65871100
Ni       3.52386000       0.10375000       7.08630000       0.49194400      -0.76310600       1.05212200
Zn       5.35152000       5.38908000       0.07003000       0.65874800       0.08725900      -3.03859000
Zn       1.71810000       1.78022000      10.76614000       1.45147700       0.15531600      -0.03485700
Zn       5.43885000       5.36625000       7.14949000      -1.53760900       0.09137600       1.34935700
Zn       5.40297000       0.04311000       5.41880000      -1.34142400      -0.91455200      -0.38931700
Zn       5.38307000       1.88036000       7.08385000      -1.95693800      -2.01589500       3.46932300
Zn       0.08957000       0.04350000       0.01047000      -0.46440400      -0.70785500      -1.08040500
Zn       1.72689000       1.83419000       7.04878000       3.14855900      -1.93362600       4.37125200
Zn       1.83785000       0.07951000       2.00092000      -2.26467200      -0.39580300      -2.50355000
Zn       1.74631000       3.64878000       1.82096000      -1.12646900      -1.39356600       0.39805900
Zn       0.03932000       1.84746000       8.99739000      -0.03015200      -1.19657000      -0.63139300
Zn       7.12077000       5.36361000       5.38609000       0.66458300      -0.46866600      -0.14865200
Zn       3.64047000       1.74866000       5.43851000      -0.63977700       0.53187900      -0.17942500
Zn       1.77344000       7.07163000       5.35802000       0.54077300       0.27867600       0.69147200
Ru       7.15192000       3.49530000       7.23537000       0.57050400       4.24848300       1.90585800
Ru       3.51936000       5.44304000       1.76501000       0.41417900       0.01168600       1.18428900
Ru       5.37670000       5.33852000       3.56367000       0.02034200       0.46416400       1.02338100
Ru       3.58858000       3.61462000       0.12729000      -2.76913000       0.45009300      -4.69317100
Ru       3.62656000       0.04205000      10.72898000      -2.27418300      -0.89703100      -1.11254400
Ru       3.65283000       0.07619000       3.54955000       0.20058700      -1.08409600       2.16137000
Ru       1.85735000       5.39837000       3.64583000      -1.19351700      -1.49949000      -0.21424300
Ru       5.34272000       3.54244000       5.44358000      -0.07257600       1.74005600      -1.58712900
Ru       3.58709000       1.90088000       1.89881000      -0.88839900      -2.63735200      -1.45169500
Ru       0.01587000       5.39409000       1.77150000       0.82901100       1.60199700       1.76215500
Ru       1.85439000       5.42581000       7.30256000      -0.90550100      -0.11805500      -2.15382400
Ru       1.68721000       3.43545000       5.38194000       3.99508700       5.03680400      -1.33306000
Ru       1.82443000       5.40731000      10.73790000       0.27205500       0.28496700      -0.63418800
Ru       5.31221000       0.01647000       1.67253000       1.42779700      -0.19844200       3.09981000
Ru       3.58128000       3.55006000       3.55187000      -1.21577400       1.54090900       3.07020300
Pt       5.31998000       3.59215000       1.78596000       3.88356500       0.53526800       2.02880600
Pt       7.17476000       3.57228000      10.75546000       1.10117300       1.11831900      -1.20907700
Pt       0.03858000       1.80205000       5.48368000      -2.88233000      -4.56367800      -3.73236800
Pt       5.37761000       1.80432000      10.72731000      -0.79219000      -0.73450900      -2.67517700
36
Lattice="10.17896035 0.0 0.0 0.0 10.17896035 0.0 0.0 0.0 6.785973567" Properties=species:S:1:pos:R:3:forces:R:3 class=3 scale=1.0936659901056818 fps_idx=-1 name=654 energy=-295.5983349 stress="0.23889555934780998 -0.00207471508249835 0.006845643518704877 -0.00207471508249835 0.2384006576062004 0.0015937943213307935 0.006845643518704877 0.0015937943213307935 0.23851844112491494" free_energy=-295.63442729 pbc="T T T"
Ru       8.48247000       1.69649000       5.08948000      -0.12982700       0.36181500       0.24203200
Ru       3.39299000       6.78597000       3.39299000      -0.38140600       0.11691800      -0.11230400
Ru       8.48247000       8.48247000       5.08948000      -0.13502500       0.17453200       0.10926100
Ru       1.69649000       1.69649000       5.08948000       0.38167900       0.10245300      -0.17445700
Ru       1.69649000       8.48247000       5.08948000       0.57463300       0.09994000       0.02340500
Ru       8.48247000       5.08948000       5.08948000      -0.04747600      -0.50482100      -0.10396300
Ru       5.08948000       5.08948000       5.08948000      -0.12825700      -0.18877800       0.12089700
Ru       0.00000000       3.39299000       0.00000000      -0.17462300      -0.43186100      -0.22794400
Ru       1.69649000       5.08948000       5.08948000       0.14677400      -0.20374700      -0.33646500
Ru       1.69649000       1.69649000       1.69649000      -0.01867200       0.09525000       0.29862700
Ru       5.08948000       1.69649000       1.69649000       0.17631100      -0.02017200       0.17527900
Ru       0.00000000       6.78597000       3.39299000      -0.03016500      -0.46664600       0.00804200
Ru       6.78597000       0.00000000       3.39299000      -0.32422200       0.05867500       0.06183000
Ag       6.78597000       6.78597000       3.39299000      -0.25876600      -0.06087900       0.32704800
Ag       0.00000000       0.00000000       3.39299000       0.16669900       0.14996000       0.13023000
Ag       0.00000000       6.78597000       0.00000000       0.44722300      -0.04459100      -0.21752100
Ag       3.39299000       3.39299000       0.00000000      -0.19921000       0.16848600       0.19999100
Hf       8.48247000       5.08948000       1.69649000      -0.12812600      -1.30571600       0.08735800
Hf       3.39299000       0.00000000       0.00000000      -1.00006500      -1.79502600       0.98678900
Hf       5.08948000       1.69649000       5.08948000       1.45855000       0.79074400      -1.38070300
Hf       8.48247000       8.48247000       1.69649000      -0.34849900       1.03554700      -0.50399400
Ir       6.78597000       6.78597000       0.00000000       0.07768500       0.16412800       0.18465300
Ir       3.39299000       6.78597000       0.00000000       0.28476700       0.14304000       0.04170600
Ir       8.48247000       1.69649000       1.69649000      -0.32584700       0.18326200      -0.15463400
Ir       5.08948000       5.08948000       1.69649000      -0.03131100      -0.16695400      -0.07494500
Ir       6.78597000       3.39299000       3.39299000       0.06062700      -0.13454200       0.13316800
Ir       6.78597000       0.00000000       0.00000000       0.07864400       0.17272300      -0.15694000
Ir       0.00000000       0.00000000       0.00000000      -0.42713800       0.36124800      -0.14929400
Ir       1.69649000       8.48247000       1.69649000       0.37986100       0.01566900      -0.17221400
Ir       1.69649000       5.08948000       1.69649000      -0.07261900       0.07827600       0.17032800
Ir       3.39299000       3.39299000       3.39299000      -0.08279200       0.14605800       0.16004900
Ir       5.08948000       8.48247000       1.69649000      -0.21679000       0.27509300      -0.05191800
Ir       6.78597000       3.39299000       0.00000000       0.33245300      -0.14503600      -0.11472300
Ir       0.00000000       3.39299000       3.39299000      -0.08648300       0.51844200      -0.08246900
Ir       3.39299000       0.00000000       3.39299000       0.35128200      -0.24542700       0.38977100
Ir       5.08948000       8.48247000       5.08948000      -0.36987100       0.50193500       0.16402600
36
Lattice="8.470538482 0.0 0.0 0.0 8.470538482 0.0 0.0 0.0 5.647025655" Properties=species:S:1:pos:R:3:forces:R:3 class=3 scale=0.9140462950723837 fps_idx=-1 name=4599 energy=-232.43740238 stress="-0.5551028322682163 0.010617643385350291 -0.010828831088133675 0.010617643385350291 -0.553487985336604 0.009739993579614217 -0.010828831088133675 0.009739993579614217 -0.5563721180470742" free_energy=-232.44483553 pbc="T T T"
Sc       7.06356000       4.20968000       1.36018000      -0.71162000      -1.09016300       2.76741400
V        0.01672000       8.42286000       2.84840000      -0.09835200       0.30749700      -1.52562900
V        5.63776000       5.81834000       2.96876000       0.85988500      -5.65072700      -2.17141700
V        8.44912000       2.70401000       2.82385000       1.36272600       2.96979900       1.29613600
V        7.09000000       4.17781000       4.21865000       0.96721700       0.46987100      -1.77875000
Fe       0.08512000       2.91440000       5.59498000      -2.11761200      -3.25009100       0.34717100
Fe       8.43908000       5.56381000       2.84604000      -0.63359400      -0.96347200       0.92870800
Fe       4.35253000       4.25208000       1.54113000      -1.23466800       1.91980300      -0.22488900
Fe       2.84223000       5.58915000       2.84549000      -0.00008000       0.80950600      -0.96728700
Fe       2.81595000       8.39327000       2.81460000      -0.31152100       0.68495800       0.94247300
Zn       4.27857000       1.42065000       4.26019000      -1.52016300      -0.18062800      -0.25500100
Zn       2.98135000       0.01215000       5.57873000      -2.80748500      -1.99925900      -0.90651300
Zn       2.78437000       5.63597000       0.12477000       1.55460000       1.11119400      -0.50873900
Zn       1.38303000       1.38437000       4.24612000       0.50826200      -0.70991600       1.12463600
Zn       1.37913000       7.13745000       4.05508000       1.33349500      -1.79565400       2.21312200
Zn       8.39640000       0.15374000       0.04578000       1.16709300      -1.46426600      -1.80520900
Rh       5.71683000       2.86513000       2.88028000      -3.59406400       2.94564700      -1.09423700
Rh       4.36513000       7.05475000       4.11228000      -8.03178500      -2.88356200       2.13389500