36
Lattice="10.684835525 0.0 0.0 0.0 10.684835525 0.0 0.0 0.0 7.123223683" Properties=species:S:1:pos:R:3:forces:R:3 class=3 scale=1.0625018098857693 fps_idx=-1 name=3709 energy=-274.79272153 stress="0.08617869478775508 -0.004215009701382356 0.001135424132635053 -0.004215009701382356 0.08703453676060532 -5.7091083974454166e-05 0.001135424132635053 -5.7091083974454166e-05 0.08197792821019799" free_energy=-274.80386702 pbc="T T T"
Sc       8.90403000       5.34242000       5.34242000       1.84954700      -0.60305200       0.01523300
Sc       1.78081000       5.34242000       1.78081000      -0.49242500      -0.74499900      -0.27740800
Sc       3.56161000       7.12322000       3.56161000       1.15562000      -0.00043800      -0.06187800
Sc       0.00000000       0.00000000       3.56161000      -0.85511700       0.01901000      -0.67265000
Sc       8.90403000       1.78081000       5.34242000      -0.27434500       0.20867500      -0.03951900
Sc       0.00000000       0.00000000       0.00000000      -1.18264700      -0.54330300       0.62220800
Sc       3.56161000       0.00000000       3.56161000       1.25239000      -1.18703600      -0.40478100
V        3.56161000       7.12322000       0.00000000       1.31412200      -0.52462800      -0.15144200
V        8.90403000       5.34242000       1.78081000       1.06924400      -0.60758500       0.26851100
V        5.34242000       8.90403000       5.34242000       0.22253700       0.72659900       0.34632000
V        0.00000000       7.12322000       0.00000000      -0.55686700      -0.08970400       0.17212400
V        7.12322000       0.00000000       0.00000000       0.48191100      -1.30941400       0.48553700
V        5.34242000       5.34242000       1.78081000      -0.39142100      -0.80700800      -0.70213500
Cr       7.12322000       0.00000000       3.56161000       0.01381200      -1.05781000      -0.46442800
Cr       0.00000000       7.12322000       3.56161000      -0.45647900      -0.34033600      -0.09011900
Cr       5.34242000       8.90403000       1.78081000       0.10052000       0.58999000      -0.24462500
Cr       0.00000000       3.56161000       3.56161000      -0.23056400       0.13935000      -0.52112400
Cu       3.56161000       3.56161000       3.56161000      -0.00713800       0.27627400      -0.08896200
Cu       3.56161000       0.00000000       0.00000000       0.01210400      -0.33924500       0.13192400
Cu       0.00000000       3.56161000       0.00000000      -0.18990800       0.01517500       0.19734500
Y        7.12322000       7.12322000       0.00000000      -0.72846500       0.33287000       1.25593600
Y        1.78081000       8.90403000       5.34242000       0.03014400      -1.22317300       0.72989600
Y        1.78081000       8.90403000       1.78081000      -0.05851900      -0.36160900      -0.71290700
Y        1.78081000       1.78081000       5.34242000       0.32779200       1.96897500       0.33679600
Y        5.34242000       1.78081000       5.34242000      -0.21380300      -0.15575200       0.75537500
Y        7.12322000       7.12322000       3.56161000      -0.58523000       0.43246900      -1.23375900
Y        5.34242000       1.78081000       1.78081000      -0.31247600      -0.10155400      -0.65566900
Nb       7.12322000       3.56161000       0.00000000       0.02211900       1.29882200       0.92695800
Nb       1.78081000       5.34242000       5.34242000      -0.77269800       0.31461400       0.20306300
Nb       8.90403000       8.90403000       1.78081000       0.33117200       0.32551100       0.14628400
Hf       5.34242000       5.34242000       5.34242000      -1.57041900      -1.08461800       0.84930100
Hf       7.12322000       3.56161000       3.56161000       0.75825900       1.23749500      -0.92562000
Hf       8.90403000       1.78081000       1.78081000      -0.17586500       0.38581400       0.05539300
Hf       1.78081000       1.78081000       1.78081000      -0.00032300       1.64333700      -0.13970500
Hf       8.90403000       8.90403000       5.34242000       0.26984900       0.53720200      -0.20491000
Pt       3.56161000       3.56161000       0.00000000      -0.15643700       0.62908400       0.09343600
36
Lattice="9.635884875 0.0 0.0 0.0 9.635884875 0.0 0.0 0.0 6.42392325" Properties=species:S:1:pos:R:3:forces:R:3 class=3 scale=0.9434298026410756 fps_idx=-1 name=2996 energy=-286.87287766 stress="-0.09254085228504165 0.0024403551701108433 -0.006314228948708925 0.0024403551701108433 -0.09549506465997734 0.006802726901955303 -0.006314228948708925 0.006802726901955303 -0.09694182775082971" free_energy=-286.87390508 pbc="T T T"
Sc       0.02921000       3.07534000       3.30779000       0.35901200       2.64848100      -1.17640100
Sc       4.85256000       1.64607000       1.60982000      -2.32323000      -0.19597400      -1.69855600
Sc       0.08519000       6.27742000       6.41241000       0.13125800       1.30246100      -0.06136400
Sc       8.04074000       8.08267000       1.57201000      -0.17883000      -0.39156300      -0.89605200
Sc       4.89356000       4.93023000       4.84477000      -2.50677700      -3.40979100      -0.03795700
Sc       6.49174000       0.08619000       3.26806000      -0.68763900      -1.05644400       0.01069600
Sc       1.69208000       8.06353000       4.75564000       1.52226400       0.64117800      -0.79877100
Sc       7.99604000       1.57451000       1.65486000      -1.07168300       0.59373800      -2.22462900
Sc       4.83462000       1.44380000       4.84776000      -2.73325400       1.13088300       1.00102800
Sc       9.53357000       0.07041000       3.12542000       1.38976400      -1.61965900      -0.06207900
Sc       3.12921000       6.48182000       0.02447000      -1.36169400      -0.53665100      -0.03391100
Sc       1.57723000       4.85359000       1.60382000       2.08439900      -0.59142800       0.60903000
Co       3.17493000       6.45886000       3.26211000       0.18155600      -0.32115400      -0.21299300
Co       1.51310000       5.00263000       4.75398000       0.82406900      -0.77435300      -0.27676800
Co       6.47202000       3.22036000       0.02547000       0.03286900       0.27779900       0.14938100
Co       3.21609000       3.38336000       6.36089000      -0.19411100      -0.05843600       0.37146400
Co       3.25525000       0.11780000       3.09212000      -0.47316600      -0.22661100      -0.18194700
Co       3.23903000       9.50952000       0.20074000      -0.09490600      -0.11672600      -0.35531800
Co       1.68911000       7.99308000       1.49061000      -0.21061600       0.11067300       0.39802700
Zr       0.09797000       0.15428000       6.38258000       0.19629500      -2.62187900       0.81038500
Zr       1.42935000       1.64884000       4.78282000       5.08297200      -0.42159700      -0.67851500
Zr       4.87702000       7.85368000       4.88279000      -2.33524600       2.82148000      -1.68347500
Zr       0.05230000       3.19811000       6.40585000      -0.10496600       2.39935600       0.16638200
Zr       8.19241000       4.81908000       4.73051000      -1.22868000      -1.08007200       0.97149900
Zr       4.89754000       4.94110000       1.69964000      -2.24906500      -2.61724200      -0.33636600
Zr       6.44153000       3.06623000       3.13056000       0.30210300       1.80915000       0.44235900
Zr       0.04720000       6.37272000       3.11469000       1.26009500       0.82548700      -0.07187300
Zr       1.55134000       1.72151000       1.48906000       4.53941500      -1.14875400       1.00802700
Zr       6.33364000       6.39266000       6.39151000       2.11250700      -0.33827800       1.11585600
Zr       4.80528000       7.88029000       1.66955000      -2.10128600       2.79408900       1.04210700
Zr       8.04114000       1.70927000       4.91119000      -2.67768800      -0.32941700       1.54041300
Zr       7.96040000       8.02735000       4.86003000       0.43958700       0.76381200       0.29915000
Zr       6.53648000       6.25756000       3.28220000       1.16587500       0.36679100      -1.06470800
W        6.25718000       9.54549000       6.42115000       1.32460200      -0.11885800       0.59104000
W        3.08815000       3.30210000       3.20604000      -0.19788700       0.39967900       1.14255700
W        7.98093000       4.72271000       1.48848000      -0.21792000      -0.91017100       0.18228000
36
Lattice="9.770912168 0.0 0.0 0.0 9.770912168 0.0 0.0 0.0 6.513941446" Properties=species:S:1:pos:R:3:forces:R:3 class=3 scale=1.0247182617379567 fps_idx=-1 name=712 energy=-308.69694165 stress="0.12166491975314685 0.0068899332674621444 0.002342869039073673 0.0068899332674621444 0.1225653697917198 -0.010675776801348767 0.002342869039073673 -0.010675776801348767 0.12271392395042494" free_energy=-308.70381995 pbc="T T T"
Ti       6.51394000       0.00000000       3.25697000       0.09275800       0.84328500      -0.66454200
Ti       4.88546000       1.62849000       4.88546000      -0.52071500       0.36620700      -0.52906100
Ti       1.62849000       1.62849000       1.62849000       0.66985700      -0.47792200      -0.32320600
Ti       0.00000000       0.00000000       3.25697000       0.16179500      -0.40246200       0.04161600
Ti       4.88546000       4.88546000       1.62849000      -1.01655000       0.69151000       1.14579700
Ti       0.00000000       3.25697000       3.25697000       0.35292800       0.35056800       0.45860700
Ti       3.25697000       0.00000000       3.25697000      -0.45219000      -0.50469500      -1.15525000
Fe       8.14243000       8.14243000       4.88546000      -0.80646300       0.27182000      -0.39593000
Fe       6.51394000       3.25697000       3.25697000       0.11288900      -0.22448500       0.65072700
Fe       4.88546000       4.88546000       4.88546000      -0.37082800       0.25717000      -0.02599500
Fe       4.88546000       8.14243000       1.62849000       0.36224300      -0.09630100      -0.37213600
Fe       3.25697000       6.51394000       3.25697000      -0.51768100      -0.22416700      -0.17063000
Fe       8.14243000       1.62849000       1.62849000      -0.22613300      -0.78889400       0.59572600
Fe       0.00000000       6.51394000       3.25697000       0.26811400      -0.07800500       0.64069500
Fe       1.62849000       4.88546000       1.62849000       1.31014300      -0.09394800       0.38258100
Fe       1.62849000       4.88546000       4.88546000       0.92867200      -0.00729100      -0.49336400
Fe       4.88546000       1.62849000       1.62849000      -0.65799200      -0.18760500      -0.06113800
Fe       0.00000000       0.00000000       0.00000000       0.48076800       0.59355400      -0.80716200
Fe       1.62849000       8.14243000       1.62849000       0.85765700       0.14208300       0.18653800
Mo       8.14243000       4.88546000       4.88546000      -1.03385400       1.01722400      -2.24430400
Mo       3.25697000       6.51394000       0.00000000      -1.16089800      -0.41476300       0.43885600
Mo       6.51394000       6.51394000       0.00000000      -0.72181900      -0.33830700      -0.92411800
Mo       3.25697000       3.25697000       3.25697000      -0.07263100       0.65746300      -0.05804900
Mo       6.51394000       6.51394000       3.25697000      -0.48713700      -0.59295300       0.91162500
Mo       1.62849000       8.14243000       4.88546000       0.54132200      -0.22979500       0.00456800
Mo       3.25697000       3.25697000       0.00000000      -0.17924100       0.40017100      -0.06557500
Mo       3.25697000       0.00000000       0.00000000      -0.61518100      -0.10949000       0.87985500
Lu       4.88546000       8.14243000       4.88546000      -0.59112800      -1.31184500      -0.33813800
Lu       0.00000000       3.25697000       0.00000000       0.96312300       0.20013900       0.14848500
Lu       8.14243000       4.88546000       1.62849000      -0.76560300       0.58052700       2.36557600
Lu       0.00000000       6.51394000       0.00000000       2.05860500       0.65531400      -1.07496700
Lu       8.14243000       8.14243000       1.62849000       0.71240300       0.19100800       0.68231900
Lu       6.51394000       3.25697000       0.00000000      -1.23626000      -0.65941500       0.36476200
Ta       8.14243000       1.62849000       4.88546000      -0.02728300      -0.97718700      -1.09596200
Ta       1.62849000       1.62849000       4.88546000       1.23017800      -0.48478000      -0.00933500
Ta       6.51394000       0.00000000       0.00000000       0.35613300       0.98626600       0.91052900
36
Lattice="8.782773097 0.0 0.0 0.0 8.782773097 0.0 0.0 0.0 5.855182065" Properties=species:S:1:pos:R:3:forces:R:3 class=3 scale=0.9496633517239711 fps_idx=-1 name=457 energy=-298.46974511 stress="-0.2768875068083879 -0.005414652721413622 0.0029666517026235716 -0.005414652721413622 -0.2674046134726871 -0.015330326058394074 0.0029666517026235716 -0.015330326058394074 -0.2529102376975591" free_energy=-298.46273679 pbc="T T T"
Co       5.85518000       5.85518000       2.92759000       0.63243700      -0.01359400      -0.34872300
Co       1.46380000       4.39139000       4.39139000      -0.70372600      -0.50039500      -0.26274500
Co       1.46380000       7.31898000       1.46380000      -0.32713300       0.16614900       0.01649300
Ni       1.46380000       7.31898000       4.39139000      -0.93799400      -0.20898300      -0.38204500
Ni       0.00000000       2.92759000       2.92759000      -0.01338100       0.05091700       0.60243400
Ni       4.39139000       4.39139000       1.46380000       1.02426200       0.74788700      -0.39609100
Ni       0.00000000       2.92759000       0.00000000       0.34718200      -0.26807600      -0.82662200
Ni       5.85518000       0.00000000       0.00000000       0.97699000       0.02603000      -0.03345200
Ni       7.31898000       1.46380000       4.39139000       0.23885200       0.34220500       0.59843600
Cu       0.00000000       5.85518000       2.92759000       1.02987700       0.77767300      -0.19765400
Cu       7.31898000       7.31898000       1.46380000      -1.12528500      -0.73536500       0.11870100
Cu       5.85518000       5.85518000       0.00000000      -0.08526800      -0.05343000       1.75210800
Rh       0.00000000       0.00000000       2.92759000       0.47939100      -1.06462900       0.15976000
Rh       2.92759000       0.00000000       2.92759000      -1.92185100      -1.35850200      -0.10284100
Rh       1.46380000       1.46380000       1.46380000      -1.91930200       0.68628700      -0.08622700
Rh       4.39139000       7.31898000       1.46380000       1.33896700      -0.56895600      -0.24677600
Rh       5.85518000       2.92759000       0.00000000       0.50824900      -0.57313600       0.32699200
Rh       1.46380000       1.46380000       4.39139000      -1.43135400       0.99008300      -0.25834800
Hf       7.31898000       1.46380000       1.46380000       1.03622600       1.88803900       0.51361700
Hf       7.31898000       7.31898000       4.39139000      -1.76365700       0.34708300      -2.63827200
Hf       4.39139000       7.31898000       4.39139000       1.25548700       0.78055100       1.26839700
Hf       0.00000000       5.85518000       0.00000000       3.47981700       0.39839700       1.69715900
Hf       2.92759000       2.92759000       2.92759000      -2.10900700       0.94306400       1.44668100
Hf       7.31898000       4.39139000       4.39139000      -0.31173700      -2.52985900      -1.43397400
Hf       2.92759000       5.85518000       2.92759000      -2.05541800       0.18904700      -1.30321900
Hf       0.00000000       0.00000000       0.00000000       3.10616500       0.48842800      -0.11358200
Hf       4.39139000       1.46380000       1.46380000       0.55084000      -1.68864000      -1.80466000
Ir       2.92759000       5.85518000       0.00000000      -0.90688800       0.06169700      -0.42066800
Ir       5.85518000       0.00000000       2.92759000       1.70372800      -0.55762300       0.31761500
Ir       7.31898000       4.39139000       1.46380000       0.80149100       1.07259100       0.28088700
Ir       4.39139000       1.46380000       4.39139000       0.78974300      -0.41505500       0.56402000
Ir       5.85518000       2.92759000       2.92759000       0.64432600       0.20875900      -0.42608500
Ir       2.92759000       2.92759000       0.00000000      -0.29839300       1.51968000       0.29139400
Ir       4.39139000       4.39139000       4.39139000       0.14495700       1.63451200      -0.40929800
Ir       2.92759000       0.00000000       0.00000000      -1.39147600      -1.99023200       0.29028900
Pt       1.46380000       4.39139000       1.46380000      -2.78711800      -0.79260600       1.44629900
48
Lattice="7.699206955 0.0 0.0 0.0 7.699206955 0.0 0.0 0.0 11.548810433" Properties=species:S:1:pos:R:3:forces:R:3 name=132 energy=-492.3406702 stress="0.20076053153203025 0.0003938267428249818 0.0006968020788136071 0.0003938267428249818 0.204728052913553 -0.00046455552423949086 0.0006968020788136071 -0.00046455552423949086 0.19849039479880043" free_energy=-492.34422801 pbc="T T T"
Mn       0.00000000       1.92480000       5.77441000       0.37615400      -0.35167600      -0.00738200
Mn       1.92480000       0.00000000       1.92480000       0.01014900       0.70746300      -0.22709100
Mn       5.77441000       1.92480000       3.84960000      -0.00675500      -0.63748000       0.10510300
Mn       5.77441000       3.84960000       1.92480000       0.02357700      -0.68199800      -0.78033100
Mn       3.84960000       0.00000000       7.69921000      -0.89206400       0.42856000      -0.07030900
Mn       3.84960000       5.77441000       1.92480000       0.34186600       0.68345900      -0.24820200
Mn       3.84960000       3.84960000       7.69921000      -0.40315100      -0.38630300       0.03747000
Mn       1.92480000       3.84960000       5.77441000       0.03795800      -1.09537100       1.09587000
Mn       0.00000000       0.00000000       3.84960000      -0.01906200       1.35800500      -0.02467400
Mn       0.00000000       3.84960000       7.69921000       0.46912100      -0.40399500       0.04118600
Mn       0.00000000       1.92480000       9.62401000       0.26916200       0.01899600       0.24555100
Mn       1.92480000       0.00000000       5.77441000       0.05510400       1.01565300       0.37939400
Mn       5.77441000       5.77441000       0.00000000       0.37978500      -0.12199200      -0.04888900
Mn       1.92480000       5.77441000       7.69921000      -0.01243100       0.26035800       0.08508700
Mn       0.00000000       3.84960000       0.00000000      -0.51066300      -0.29069400      -0.21307400
Mn       1.92480000       1.92480000       3.84960000       0.00376900      -0.86223900       0.39197200
Mn       5.77441000       0.00000000       1.92480000       0.11532800       0.66502600      -0.21637500
Mn       3.84960000       1.92480000       5.77441000      -0.34168900      -0.41799900       0.11146400
Mn       0.00000000       0.00000000       7.69921000       0.88754200       0.42212300      -0.01732900
Mn       0.00000000       5.77441000       9.62401000       0.29511800      -0.00572800       0.26545100
Mn       5.77441000       3.84960000       9.62401000       0.27213400      -0.07834000       0.40286100
Mn       3.84960000       5.77441000       9.62401000      -0.34327900       0.00096700      -0.35648600
Mn       3.84960000       0.00000000       3.84960000       0.05738100       0.99915400      -0.36335800
Mn       0.00000000       1.92480000       1.92480000      -0.28125700      -0.66237900      -0.28226400
Mn       3.84960000       1.92480000       1.92480000       0.25278100      -0.58963100       0.22676400
Mn       5.77441000       1.92480000       0.00000000       0.56795700       0.07757200       0.19660600
Mn       1.92480000       0.00000000       9.62401000      -0.26151500      -0.01347200      -0.21549200
Mn       5.77441000       0.00000000       5.77441000      -0.04281200       1.01459500      -0.21414300
Fe       1.92480000       1.92480000       0.00000000      -0.42701000      -0.35805200       0.03457600
Fe       3.84960000       1.92480000       9.62401000      -0.25947000      -0.00228400      -0.18020400
Fe       5.77441000       3.84960000       5.77441000      -0.05192400      -0.85754200       0.34840600
Fe       1.92480000       5.77441000       0.00000000      -0.30525500       0.44245700      -0.22143700
Fe       0.00000000       0.00000000       0.00000000       0.16461300       0.17861500       0.06608600
Fe       1.92480000       1.92480000       7.69921000       0.01891100      -0.17809700      -0.17872800
W        0.00000000       5.77441000       5.77441000       0.71273000       0.67376700       1.56388400
W        3.84960000       0.00000000       0.00000000      -0.86865900       0.12589500       0.69110300
W        3.84960000       3.84960000       3.84960000       0.83454100      -2.37801900       0.02897400
W        5.77441000       1.92480000       7.69921000      -0.11415500       0.75168300      -0.77724300
W        3.84960000       3.84960000       0.00000000       1.13608300      -0.10832000      -0.02439400
W        5.77441000       5.77441000       7.69921000       0.03687900      -0.86703800       0.36429200
W        3.84960000       5.77441000       5.77441000      -0.70956700       0.70792600       1.38956200
W        0.00000000       5.77441000       1.92480000      -0.64020700       1.70371200      -2.36013800
W        5.77441000       5.77441000       3.84960000      -0.81184100       1.53481200      -0.57412500
W        1.92480000       3.84960000       1.92480000      -0.09772300      -1.55518600      -1.92848400
W        0.00000000       3.84960000       3.84960000      -0.80107200      -3.23575500       0.85786700
W        5.77441000       0.00000000       9.62401000       0.77915200       0.10037100       0.93724800
W        1.92480000       3.84960000       9.62401000      -0.67480300      -0.15918500      -0.50703200
W        1.92480000       5.77441000       3.84960000       0.77857200       2.42761200       0.17041100
36
Lattice="10.17896035 0.0 0.0 0.0 10.17896035 0.0 0.0 0.0 6.785973567" Properties=species:S:1:pos:R:3:forces:R:3 class=3 scale=1.0936659901056818 fps_idx=-1 name=654 energy=-295.5983349 stress="0.23889555934780998 -0.00207471508249835 0.006845643518704877 -0.00207471508249835 0.2384006576062004 0.0015937943213307935 0.006845643518704877 0.0015937943213307935 0.23851844112491494" free_energy=-295.63442729 pbc="T T T"
Ru       8.48247000       1.69649000       5.08948000      -0.12982700       0.36181500       0.24203200
Ru       3.39299000       6.78597000       3.39299000      -0.38140600       0.11691800      -0.11230400
Ru       8.48247000       8.48247000       5.08948000      -0.13502500       0.17453200       0.10926100
Ru       1.69649000       1.69649000       5.08948000       0.38167900       0.10245300      -0.17445700
Ru       1.69649000       8.48247000       5.08948000       0.57463300       0.09994000       0.02340500
Ru       8.48247000       5.08948000       5.08948000      -0.04747600      -0.50482100      -0.10396300
Ru       5.08948000       5.08948000       5.08948000      -0.12825700      -0.18877800       0.12089700
Ru       0.00000000       3.39299000       0.00000000      -0.17462300      -0.43186100      -0.22794400
Ru       1.69649000       5.08948000       5.08948000       0.14677400      -0.20374700      -0.33646500
Ru       1.69649000       1.69649000       1.69649000      -0.01867200       0.09525000       0.29862700
Ru       5.08948000       1.69649000       1.69649000       0.17631100      -0.02017200       0.17527900
Ru       0.00000000       6.78597000       3.39299000      -0.03016500      -0.46664600       0.00804200
Ru       6.78597000       0.00000000       3.39299000      -0.32422200       0.05867500       0.06183000
Ag       6.78597000       6.78597000       3.39299000      -0.25876600      -0.06087900       0.32704800
Ag       0.00000000       0.00000000       3.39299000       0.16669900       0.14996000       0.13023000
Ag       0.00000000       6.78597000       0.00000000       0.44722300      -0.04459100      -0.21752100
Ag       3.39299000       3.39299000       0.00000000      -0.19921000       0.16848600       0.19999100
Hf       8.48247000       5.08948000       1.69649000      -0.12812600      -1.30571600       0.08735800
Hf       3.39299000       0.00000000       0.00000000      -1.00006500      -1.79502600       0.98678900
Hf       5.08948000       1.69649000       5.08948000       1.45855000       0.79074400      -1.38070300
Hf       8.48247000       8.48247000       1.69649000      -0.34849900       1.03554700      -0.50399400
Ir       6.78597000       6.78597000       0.00000000       0.07768500       0.16412800       0.18465300
Ir       3.39299000       6.78597000       0.00000000       0.28476700       0.14304000       0.04170600
Ir       8.48247000       1.69649000       1.69649000      -0.32584700       0.18326200      -0.15463400
Ir       5.08948000       5.08948000       1.69649000      -0.03131100      -0.16695400      -0.07494500
Ir       6.78597000       3.39299000       3.39299000       0.06062700      -0.13454200       0.13316800
Ir       6.78597000       0.00000000       0.00000000       0.07864400       0.17272300      -0.15694000
Ir       0.00000000       0.00000000       0.00000000      -0.42713800       0.36124800      -0.14929400
Ir       1.69649000       8.48247000       1.69649000       0.37986100       0.01566900      -0.17221400
Ir       1.69649000       5.08948000       1.69649000      -0.07261900       0.07827600       0.17032800
Ir       3.39299000       3.39299000       3.39299000      -0.08279200       0.14605800       0.16004900
Ir       5.08948000       8.48247000       1.69649000      -0.21679000       0.27509300      -0.05191800
Ir       6.78597000       3.39299000       0.00000000       0.33245300      -0.14503600      -0.11472300
Ir       0.00000000       3.39299000       3.39299000      -0.08648300       0.51844200      -0.08246900
Ir       3.39299000       0.00000000       3.39299000       0.35128200      -0.24542700       0.38977100
Ir       5.08948000       8.48247000       5.08948000      -0.36987100       0.50193500       0.16402600
36
Lattice="8.470538482 0.0 0.0 0.0 8.470538482 0.0 0.0 0.0 5.647025655" Properties=species:S:1:pos:R:3:forces:R:3 class=3 scale=0.9140462950723837 fps_idx=-1 name=4599 energy=-232.43740238 stress="-0.5551028322682163 0.010617643385350291 -0.010828831088133675 0.010617643385350291 -0.553487985336604 0.009739993579614217 -0.010828831088133675 0.009739993579614217 -0.5563721180470742" free_energy=-232.44483553 pbc="T T T"
Sc       7.06356000       4.20968000       1.36018000      -0.71162000      -1.09016300       2.76741400
V        0.01672000       8.42286000       2.84840000      -0.09835200       0.30749700      -1.52562900
V        5.63776000       5.81834000       2.96876000       0.85988500      -5.65072700      -2.17141700
V        8.44912000       2.70401000       2.82385000       1.36272600       2.96979900       1.29613600
V        7.09000000       4.17781000       4.21865000       0.96721700       0.46987100      -1.77875000
Fe       0.08512000       2.91440000       5.59498000      -2.11761200      -3.25009100       0.34717100
Fe       8.43908000       5.56381000       2.84604000      -0.63359400      -0.96347200       0.92870800
Fe       4.35253000       4.25208000       1.54113000      -1.23466800       1.91980300      -0.22488900
Fe       2.84223000       5.58915000       2.84549000      -0.00008000       0.80950600      -0.96728700
Fe       2.81595000       8.39327000       2.81460000      -0.31152100       0.68495800       0.94247300
Zn       4.27857000       1.42065000       4.26019000      -1.52016300      -0.18062800      -0.25500100
Zn       2.98135000       0.01215000       5.57873000      -2.80748500      -1.99925900      -0.90651300
Zn       2.78437000       5.63597000       0.12477000       1.55460000       1.11119400      -0.50873900
Zn       1.38303000       1.38437000       4.24612000       0.50826200      -0.70991600       1.12463600
Zn       1.37913000       7.13745000       4.05508000       1.33349500      -1.79565400       2.21312200
Zn       8.39640000       0.15374000       0.04578000       1.16709300      -1.46426600      -1.80520900
Rh       5.71683000       2.86513000       2.88028000      -3.59406400       2.94564700      -1.09423700
Rh       4.36513000       7.05475000       4.11228000      -8.03178500      -2.88356200       2.13389500
Rh       7.11786000       7.21933000       4.12523000       3.44166300      -3.13284900       3.22760400
Rh       7.04075000       1.49046000       4.11244000       5.49776600      -2.20632800       3.57446100
Rh       5.60416000       0.03868000       2.96491000       0.21923900       4.04123400      -4.95542500
Rh       4.31374000       7.07469000       1.50923000      -4.07193500      -1.42833600      -0.93999200
Rh       5.68337000       2.79417000       5.60472000       0.27032700       1.43269600       1.27176200
Pd       2.87215000       2.82752000       0.00653000      -0.66375500      -1.69798100       0.19426000
Pd       1.24012000       6.94337000       1.34469000       3.37882000       2.82304000       0.68041400
Pd       4.23260000       4.23165000       4.39253000      -1.48400300       2.67374900      -3.32611100
Pd       5.58330000       0.01089000       5.54795000       2.73698500       0.60196700       1.40577200
Pd       1.34732000       4.21178000       1.41646000       2.23652700      -0.42942200       3.00877900
Pd       4.18748000       1.33186000       1.29788000       0.52781000      -0.46777600       3.51233100