21
Properties=species:S:1:pos:R:3:forces:R:3 energy=-17617710.229506634 pbc="F F F"
C        2.20204001      -0.83926384      -0.05632183   -1767.62610156    2625.69175663   -1975.43193381
C        0.84568157       0.88770938      -1.84125823    1589.56346922    -759.42746011     526.94859368
C        2.86952205      -0.27782953      -1.19156207    -845.89127180    -300.03632174   -1141.36933463
C        2.15993161       0.51841081      -2.15333216   -1023.90176215   -1305.10376986    2819.32545778
C       -3.23289473       1.31141557       0.40089882    1769.00776144    -209.10022886    -402.83913959
C        0.84452069      -0.40009276       0.24843781    3233.38576953    -189.49165256   -3090.68116549
C        0.26020362       0.50474800      -0.68004273    -807.71377081    -766.19625143    3096.06197200
O       -0.15988404       0.14060091       2.28054858     615.63142241   -1059.46146786    -355.44932144
O       -2.15596317      -0.56008543      -0.70764996    -715.34109927    -594.74804131     192.76394808
O        0.11672728      -2.05894354       1.72040766     923.43720916     114.90911828   -1634.45360860
C        0.26083965      -0.72289599       1.49969423   -2206.99322463     504.61572697    2639.26348352
C       -2.09103394       0.51796218      -0.16684143    1307.50800924    -608.18694496    -783.52636676
O       -0.85182439       1.17254508      -0.20054803   -1170.44214487    1006.61982931     -82.91769359
H        0.14862732      -2.22999359       2.65226769    -447.81165715     -82.06239012    1695.08574379
H        2.75176883      -1.42507043       0.61699857     871.63532507   -1289.28885755    1305.08968021
H        0.33560156       1.65074636      -2.31391026   -1301.33154887    1790.46655563   -1934.07495416
H        3.89707013      -0.55789245      -1.47824408      38.58754066    -117.69701780     418.07966726
H        2.45134385       0.85336845      -3.10132385    1538.70821421     525.38577381   -1652.06957929
H       -3.30684623       2.08458082      -0.37020135   -1109.28514451     266.26137361    -430.94315783
H       -4.03476020       0.59618612       0.60172846    -586.46939486     317.93454823    -170.75200657
H       -2.89131785       1.88573322       1.25334480      95.34250239     128.91577312     961.88971543
21
Properties=species:S:1:pos:R:3:forces:R:3 energy=-17617612.963812124 pbc="F F F"
C        1.61039772      -1.46437216      -0.62097769    -896.37942457    1215.54177782   -1473.20003165
C        0.71942491       0.98297614      -1.97555572    1737.37217755    -595.55238549    -247.95357025
C        2.35675022      -0.91413236      -1.66494597     568.45752558    1112.79146192    -594.46979643
C        1.84878142       0.25284236      -2.34873025     554.26600836   -1031.54195205     762.37229982
C       -2.30946259       2.39038640       1.16154629     393.81538720    1116.14202184   -2646.94316557
C        0.34228843      -0.76963156      -0.36934263    3281.33634546   -1846.16479361    2216.01841684
C        0.12416845       0.51522277      -0.84397421   -2161.98615143   -1714.05576070     638.49414225
O       -1.55532358      -1.80975942       0.69526072    -883.00649545     750.63068478     -64.75325499
O       -0.26715980       1.44468013       1.78241838     850.85766777    -187.36936045    -570.04693067
O        0.40704784      -1.90405724       1.76203016    -596.88725128    1056.79122206    -931.49972860
C       -0.41283065      -1.40166768       0.74488206     754.70922711   -1737.60630228     300.37179940
C       -1.06421628       1.63124001       0.88549828    -139.18764226    -498.33940492    1768.05737855
O       -1.00824446       1.08532903      -0.35161497   -1059.10135903    1649.25560877    -622.20357569
H       -0.29460266      -2.40603801       2.21744598      54.12179125    -425.55684915     627.46112348
H        2.01480813      -2.39553938      -0.18414181    -717.29832650     243.85888140     433.53591056
H        0.43142785       1.88257992      -2.48667291    -298.51592509     742.00241961    -310.62664782
H        3.41110647      -1.29261744      -1.88645518   -1257.96648555     281.49125691     -67.23071941
H        2.38757486       0.65808778      -3.16320400    1070.17988634     383.35310210   -1346.70485013
H       -2.11367187       3.47234473       0.90766506    -454.84270107    -542.90049442     -91.94771947
H       -3.17690592       1.96815123       0.66095415    -473.27803119      84.76693445    -733.41272101
H       -2.49875512       2.33727079       2.17410327    -326.66632605     -57.53806860    2954.68158939
21
Properties=species:S:1:pos:R:3:forces:R:3 energy=-17617654.430163816 pbc="F F F"
C        2.00674003      -1.10649256      -0.30127432    2435.55331714   -1084.63854128    -384.63988824
C        0.61293795       0.99293707      -1.46629660    3612.38763801   -2905.11306911   -1685.76106938
C        2.45426019      -0.60263820      -1.57050439       5.73818997   -2221.07001920    2875.81220194
C        1.72455923       0.38168566      -2.12877677   -1490.15121768    1424.09631556    -531.74987335
C       -2.94768126       1.81233530       0.56242646   -1200.02645055    1654.08979857       9.54105852
C        0.92676119      -0.51585013       0.34584867     776.87538344   -1490.37089281     442.54259082
C        0.19302353       0.46274564      -0.30489053    -287.82141787    1528.88433425    1040.88051041
O        1.34599671      -1.76934724       2.31774557     188.67522418    -755.15762765    1224.69100008
O       -2.19070128       0.61066428      -1.40703299    -970.53376718   -1122.73520675   -2194.75811189
O       -0.77418043      -1.19180359       1.64862490    -621.21195229     669.28892370    -506.66494830
C        0.56335338      -1.21067532       1.60139763    -400.20740892     808.21950698   -1318.62644008
C       -2.03983482       1.08103710      -0.33198779     171.77880267     561.56989784    1530.65129978
O       -0.84401810       1.15196521       0.28143774    1291.81100776    -852.28031105    1405.68885621
H       -1.12850641      -1.76437789       2.30946768    -451.58732342   -1152.33046533    1633.27609438
H        2.58583555      -2.03482778       0.18434748   -1275.91947655    2067.24667578    -762.60040817
H        0.14765445       1.72011499      -1.99965052   -1956.14551684    2656.57827508   -1445.25840434
H        3.32837316      -1.09228633      -1.97565455     407.86045434    -116.82577349    -755.71406598
H        1.90327120       0.60359547      -3.16410662     358.76038921     804.26304067    -884.58474194
H       -3.62367759       1.22843773       1.21988276    -269.00427881    -164.20052497    -608.46585833
H       -2.31005538       2.35869913       1.26881820      48.91515132     280.97611051     162.99462576
H       -3.44172766       2.57785477      -0.10880828    -375.74664509    -590.49039588     752.74546927
21
Properties=species:S:1:pos:R:3:forces:R:3 energy=-17617763.693975586 pbc="F F F"
C        2.22790754      -0.26036478      -0.41046485    -408.30134725    1525.97430728    -195.06776013
C        0.92920160       1.75618564       1.07638883   -1548.42446776     976.79070311    1689.80181648
C        2.91644220       0.77316132       0.12917725       1.38561938     841.46979562    1702.34962690
C        2.27615792       1.69640486       0.99588996    3310.88810096     392.60563133   -1254.39115971
C       -3.44203421       0.11839036       0.49247151    -183.46148801   -1020.30849001   -3632.28561779
C        0.86298745      -0.23012455      -0.19737131   -2131.79460241   -2903.36132451      -9.58595000
C        0.16313126       0.71967689       0.57555086     223.07834445     260.97590363   -1061.14826637
O       -0.97321566      -1.80530063      -0.26731406    -644.27645237     106.91185346     -84.74795970
O       -1.84104988       0.73956340      -1.39506830    -748.80530377     115.63956893    1518.53301800
O        1.01739179      -2.47540044      -0.83208034    3800.65858180   -1140.31903864   -1107.35239419
C        0.20894662      -1.55148701      -0.47018705   -2899.27805135    2082.84350705    1100.56776487
C       -2.13325074       0.60280627      -0.22393056     338.77026106    -615.07704096    1003.33046166
O       -1.17395437       0.73509376       0.84753570    -297.35229483    -120.96360547    -874.50879094
H        0.56255574      -3.24072335      -1.15764102   -1094.57318440   -1218.94694799    -193.52283514
H        2.70329189      -0.95465805      -1.05963153     362.75223390   -1108.26421052    -567.61847149
H        0.41165783       2.52744994       1.66988013      54.66300865      35.78457447      -8.85688774
H        3.97073775       0.78123659       0.06019170    1721.65064774     268.55973492    -209.16337518
H        3.01165941       2.40687120       1.42588498    -740.59294039     232.55327418     262.00434525
H       -3.22318983      -0.51479162       1.36111823     339.44939248    -258.64771751     -38.50099730
H       -4.16684624       0.88195208       0.83877364     147.80613723     267.31362364    -435.09034863
H       -3.88741544      -0.53262417      -0.44163686     395.75775345    1278.46594940    2395.25378116
21
Properties=species:S:1:pos:R:3:forces:R:3 energy=-17617899.529706653 pbc="F F F"
C        2.22809868      -0.30275094      -0.16230282    -100.85808618   -2005.54861229      54.03704766
C        0.85635672       2.00330219       0.19282852   -3911.27390492    1311.85847152    1230.18997454
C        2.90831637       0.87770902      -0.18855695    3213.61829899    -447.72393108    1453.97784086
C        2.20434234       2.00198437       0.09272272     815.68295918    2969.43412151    -403.40586234
C       -3.54179802       1.00699078      -0.00340970   -2246.22657520   -1342.67449030     945.82463470
C        0.83125131      -0.37765705       0.06491941     334.87745530   -1031.38855998    -113.47763040
C        0.10517667       0.80344689       0.28323500     625.88472818    -362.83975429   -1695.92778036
O       -0.71824721      -2.02594145       0.94124356   -2523.14851745    -161.34577674     712.59068644
O       -1.86725985       0.05146865      -1.54844340    -852.52893681    -906.29689272   -1968.36463732
O        1.19500746      -2.72830088       0.03902715   -1475.04011939    -967.16670077     247.24692802
C        0.25700752      -1.74032988       0.32060905    3091.05608388     117.68297957    -190.43432214
C       -2.23866921       0.50063710      -0.51502520    2167.33883007    1170.80487623    1068.33429645
O       -1.23507949       0.78308796       0.43144997    -945.30357476    1242.58408436    1914.22675096
H        0.69821503      -3.53929489       0.40427956     913.72609782    1001.83253645    -596.71853544
H        2.81724010      -1.24181115      -0.17852222    -389.00659991     177.73281112    -182.25008663
H        0.27079985       2.97205979       0.37852192     726.72013722   -1038.40623416    -290.71951491
H        4.04037803       0.91044310       0.04364009   -1318.49443960    -213.98846327   -1086.92528120
H        2.70585556       2.98527506       0.17733246      80.54677572    -166.44443030      -4.58304436
H       -3.91185810       1.96009976      -0.46186201     704.86451883     -77.88501456     255.88768876
H       -4.35236650       0.27729386      -0.36831243     800.08803053     530.58197505     430.53856890
H       -3.60670568       1.02007921       1.16192486     287.47673567     199.19705605   -1780.04767077
21
Properties=species:S:1:pos:R:3:forces:R:3 energy=-17617446.817956124 pbc="F F F"
C        2.34082485      -0.42153986       0.27489478     455.01959303    1872.41648566     299.21115162
C        0.83659350       1.93206713      -0.58971728   -1371.47250094   -3772.60326026    1684.54005208
C        2.96053478       0.92076503       0.28609650   -2234.90399870   -1638.00497176     155.79188350
C        2.10309117       2.01574417      -0.07350633    2442.16861355     839.87005469    -658.25323098
C       -3.49937922       0.69854354      -0.80151205     644.93722610    1401.32553841     415.71975371
C        0.94959522      -0.56066563      -0.09598981     907.88012716    -875.55960116    1376.69780708
C        0.24954635       0.59152512      -0.40257060   -1768.21838108    2479.83487621   -2753.03488826
O       -0.58466589      -1.94755396       1.18801840     632.63382483    -591.55025638    -915.60305518
O       -2.09565863       1.16750421       1.11663020    1134.26383153    -506.41076896     628.68358060
O        0.83079610      -2.94736837      -0.39144854     -31.07446615    2454.66633886    -391.47851074
C        0.25230038      -1.90037523       0.30203742     601.54316073    1034.08852774    -262.22561446
C       -2.15971356       0.70397707       0.01500603   -1756.10282467    1285.49889594   -2195.15473039
O       -1.10834718       0.48203787      -0.94200475     619.98579278    -321.91338314    2577.81517707
H        0.81907684      -3.73239297       0.12612876    -577.46970801   -1831.60869383    1162.81182802
H        2.85761743      -1.31787898       0.71035546     -77.51184452     575.06233188    -550.48684539
H        0.21493482       2.78380686      -0.86211532    -120.86322957     151.91121335    -239.00689956
H        3.98265759       1.13241834       0.67914869    -449.46215167    -343.22603577    -286.57119283
H        2.52710163       3.03565690      -0.15398741     350.95009508    -139.34699928     403.85446857
H       -3.21439590       0.34064098      -1.78917512    -350.50483128     176.60877586    -788.04251099
H       -4.30779860       0.08173371      -0.42407772    -215.63242718    -754.45288804     638.23595198
H       -3.98718326       1.76958832      -0.77048940    1163.83409898   -1496.60633430    -303.50412402
21
Properties=species:S:1:pos:R:3:forces:R:3 energy=-17617616.67754056 pbc="F F F"
C        2.01479585      -1.22754778      -0.24847728     424.75651589    1914.83749101     467.08120768
C        0.82766758       1.10837483      -1.51683645     -79.21530378    -935.31483560     584.51931530
C        2.67253070      -0.51098172      -1.28958236   -1889.20898315    -482.38251625     -73.18534493
C        1.99953479       0.55189679      -2.00823492    1797.29031715   -1810.18928896     881.84728748
C       -3.17737701       1.49167421       0.33877003   -3348.72462213     682.86826106    -976.99340895
C        0.90108524      -0.54440293       0.33712168   -2540.97177054    -282.85548471     750.62559400
C        0.25091550       0.54369094      -0.31133481     396.46161889    1965.55503768   -1431.73635118
O       -0.83146361      -1.03484831       2.18302834    1519.50587234     365.20414155   -1167.84764380
O       -2.21123012       0.60919959      -1.72078948      77.45867409    -184.21605562    1465.86148369
O        1.29737997      -1.93703523       2.21948360   -2067.86111822    1275.41389465    -430.48488425
C        0.27071780      -1.10919957       1.63650469    1370.24392459    -947.06447249    -268.79951609
C       -2.14882346       0.97466621      -0.56447827    2046.55880143    1315.35640713    -441.70970738
O       -0.89638280       1.25145175       0.15652327     414.18830131   -2325.99260947    -712.21221993
H        0.71233514      -2.22888334       2.94051917     320.85516814    -730.43846786     847.52669965
H        2.32396612      -2.13346056       0.33064812     373.92650913     554.24857627    -721.42458851
H        0.37817604       1.93969796      -2.06150325    -478.23841077     163.68702407      99.57757353
H        3.61833226      -0.79227803      -1.72901685     608.91641860    -703.63943918     -81.73071770
H        2.58046494       0.69286172      -2.94901702    -808.69017328    1087.91001404     180.58874205
H       -3.94933357       2.11292437      -0.24010179     758.50633638    -670.62625775      76.89632222
H       -3.81714348       0.67313800       0.70886738      88.47791174    -344.56203285     245.83832297
H       -2.94089513       2.14918145       1.16120620    1015.76401221      92.20071611     705.76193698
21
Properties=species:S:1:pos:R:3:forces:R:3 energy=-17617694.958453618 pbc="F F F"
C        2.05024595      -0.92126216      -0.30641663    -470.21872593   -3259.68543838     347.23351278
C        1.02447112       1.25278198      -1.58657964     652.20177769   -3897.03163410    1323.58476278
C        2.70863096      -0.52891473      -1.43764233    2007.90544051     302.93519012    -522.42129086
C        2.15846172       0.55875991      -2.10828765    -804.57686963    2350.58480814    -468.78358708
C       -3.03957224       1.81610597       0.40702744    -510.38122207    -271.92232762     505.49329620
C        0.76088226      -0.48524838       0.07901139     671.34477848   -1234.19333778    2154.54902734
C        0.25404577       0.64264865      -0.52290946     827.15877348    2703.46595661   -2139.19737655
O        0.66661388      -2.36512294       1.65332719    -380.84103062    1116.52691612    -350.60196759
O       -2.34628549      -0.38102127      -0.23793734    1332.58763781    1473.70170547     112.40059492
O       -0.50616075      -0.44267941       2.14689094     396.10588093   -1763.44569210     220.80605413
C        0.31273979      -1.23723808       1.32718476    -954.04008341     436.53299510     649.90357065
C       -2.04274616       0.80507500      -0.08442651   -2953.53662534    -987.76078125   -1060.57053930
O       -0.88594668       1.42951770      -0.26943642    2020.76461162   -1220.09905971     306.49370094
H       -0.75494541      -1.06290421       2.91729061     384.16269134     928.28919100   -1133.37865184
H        2.36347353      -1.93453441       0.11781840    -163.87759430    1308.06527033     172.29857706
H        0.61788374       2.12261299      -1.99332963    -673.31830651    1820.13529636   -1137.66529932
H        3.75072672      -0.97149038      -1.66741137   -1591.79935270     495.09847687     -66.00070325
H        2.57481988       1.02722547      -3.02329302     307.87793192    -342.45218488     204.30470847
H       -2.69622124       1.58547743       1.45636443   -1528.05412475     355.56352988     369.85249195
H       -2.89704901       2.90860845       0.31849777     614.24102078     -83.68079726    -492.36277076
H       -4.09093206       1.58325823       0.04665265     816.29344212    -230.62813433    1004.06188933
21
Properties=species:S:1:pos:R:3:forces:R:3 energy=-17618238.45331994 pbc="F F F"
C        1.83526342      -1.29208653      -0.36339833    1506.03580691   -2043.23580373    -347.83659094
C        1.29229888       1.34552836      -1.07543790       7.29021121     269.88148808    -134.84545893
C        2.76584187      -0.61402612      -1.17176805   -1146.83421625    -885.48519400     746.75788221
C        2.42820735       0.67387284      -1.49209002    2811.86833049    1893.91564618   -2597.55637092
C       -2.89664490       1.50865454       0.68629578   -1385.68813512    1592.94627079     447.94679438
C        0.68798602      -0.71129342       0.13992369    -676.07807816     413.47111755    -154.94372771
C        0.44331189       0.66757384      -0.23980707    -458.31225170   -1436.09067012    1298.96577321
O       -1.35744070      -1.22187845       1.30796386   -2017.59891408     156.54300583      -2.76393683
O       -1.97145458       1.08772606      -1.46592893     250.19619003     -71.01528170    -896.32106051
O        0.49738666      -2.37961640       1.85665619     781.59150814     497.54071717   -1526.13885794
C       -0.21700293      -1.49199936       1.07044345    2265.85073240     622.66920263     919.42453852
C       -1.84264643       1.32681116      -0.30248253    1148.08449271      11.50625618     301.74934551
O       -0.56908765       1.34735474       0.36254948   -1337.63944585      55.48591621    -305.97279526
H       -0.05217073      -2.67106979       2.58732748    -901.86878310    -266.40417273     490.08569819
H        2.06639306      -2.37933008      -0.18898841    -393.82526024     689.14998242     280.07766391
H        1.00893189       2.37479066      -1.33767270     330.42913679       0.71029320     -98.77924572
H        3.64944107      -1.12488820      -1.56891745     114.43341261      65.58490430       8.89365453
H        3.20756373       1.16862539      -2.18687330   -1220.56525229    -122.69884358     818.40627256
H       -2.42375928       1.73599281       1.69214250    -908.57026291     561.04277009    -767.81224173
H       -3.83438400       2.08427429       0.22742797    1885.42256966    -676.65729647    1258.77376079
H       -3.22232770       0.49365342       0.80581694    -654.22168844   -1328.86030830     261.88890267
21
Properties=species:S:1:pos:R:3:forces:R:3 energy=-17617525.653986447 pbc="F F F"
C        2.27511814      -0.39251545      -0.20324670     882.22909643   -2434.96813387     112.94582324
C        0.78144528       1.76658327       0.44550433   -1452.96127775    -374.13939654   -1101.39262647
C        2.91975391       0.82457289      -0.32259955    -308.65682218    1988.79606976    -530.70405107
C        2.05279120       1.95118327      -0.10475684     455.32838262   -1833.26165661     788.39655202
C       -3.57201205       0.44955959      -0.24626905    2838.54867701   -3131.91061838    1568.89847769
C        0.88970560      -0.64968269      -0.01532026     912.76563620     559.07273876     991.56503819
C        0.12863470       0.51362566       0.26067342   -1496.00958105     499.74729007     402.98805793
O       -0.86917090      -2.11894622       0.53875303    2638.92553760   -1217.47859048      14.97287574
O       -1.81357583       1.96414808      -1.19204830   -1266.98082770   -2200.21661716     723.99024180
O        1.31499690      -2.99103720       0.47143824     189.37106778    1294.67105246    -265.63119601
C        0.36703844      -2.01046855       0.36744946   -2716.24244102     633.88759800    -592.29551660
C       -2.18415315       1.01216997      -0.48558893    1531.57561168    2593.77062592     650.53899330
O       -1.29530855       0.41903797       0.41925910    1242.19893298    -192.91682592     -90.88688195
H        0.96818712      -3.83065686       0.79705922    -763.00612839    -367.59130880     169.87186624
H        2.85107784      -1.33812377      -0.19284120     236.97495605     226.63891216    -256.79924798
H        0.15670545       2.59255966       0.84071144     216.42869810      -9.06710121    -484.49802064
H        4.02741498       1.03834286      -0.58782810   -1629.09985010    -760.64009562     309.22961274
H        2.35142055       2.93591987      -0.34339997     818.46396814    1659.47065650      96.69793701
H       -4.02753736       0.51457079       0.76478257     453.43641001     386.98962022     -73.69262375
H       -4.18175210       0.76630725      -0.98369021   -2720.30663658    1709.00816927   -2814.63242159
H       -3.46386396      -0.68005850      -0.43897793     -62.98335840     970.13766290     380.43716160
21
Properties=species:S:1:pos:R:3:forces:R:3 energy=-17617899.92545389 pbc="F F F"
C        2.29841457      -0.47266595       0.22458814   -1521.74005890    2758.40325063    -312.47480882
C        0.64530164       1.84522545      -0.12235800     398.47571894    1406.15607724      14.44965607
C        2.82907853       0.88935648       0.40551615    -125.10323722   -2758.72227322      71.11020686
C        2.00626631       1.99022561       0.13114926     855.39222110    1910.76995301     -22.65471752
C       -3.59085580       0.60508592      -0.13795118    2787.95742297    -105.52289164    -516.37318001
C        0.91637696      -0.60965117      -0.17360991    -213.21558939     755.23481219    1212.60989647
C        0.10085117       0.59439420      -0.10083515     -49.15817208   -1545.37688673   -1522.79251462
O       -0.74741078      -2.42646667      -0.78029796    2945.28497549    1801.15993156     727.81892423
O       -1.96135409       1.60740225       1.51351815    -391.00342214   -1030.17134791   -1038.04849075
O        1.46414814      -2.86846950      -0.42017062    -178.83643181     823.68881148     -76.43825432
C        0.40792884      -1.98670230      -0.49279040   -2155.17401131   -1418.82503808    -263.56793645
C       -2.21006721       0.98637441       0.48802681    -695.43098388    1301.19471472    1007.65932667
O       -1.22331967       0.61946030      -0.42110706   -1459.01103411   -1647.49753926    -161.00217440
H        1.10176258      -3.70217881      -0.73796008    -369.04855914    -818.29638358    -153.97437006
H        2.78103105      -1.43101859       0.39135551     885.72332965      58.78999057      15.97576058
H       -0.05677311       2.68062328      -0.43185183     917.21513741    -557.42841489     607.25245149
H        3.87888510       0.93237825       0.77688854    -395.94410707     433.47199291    -345.11348324
H        2.37283718       3.07535314       0.07974637      80.89073801   -1361.81116617     288.43318637
H       -3.53868584      -0.48861720      -0.17029291    -189.77699368    -523.81992003    -226.87283120
H       -4.50577923       0.90808010       0.35394267    -296.77945285     666.79392435     398.28633142
H       -3.40994338       0.95367061      -1.18895575    -830.71754141    -148.19149430     295.71707266
21
Properties=species:S:1:pos:R:3:forces:R:3 energy=-17617979.008726034 pbc="F F F"
C        1.95756248      -1.12505029      -0.39233992     228.79786821    2189.58391929   -1270.88047261
C        0.94752362       1.23360633      -1.48300733   -1703.75170135   -1485.74552808    1795.48509359
C        2.53624559      -0.51562957      -1.50507303     732.54929285   -2194.27402442   -1901.03909559
C        1.97990311       0.58803384      -2.15447093      73.13217449     294.09511740    1521.54192962
C       -3.11516749       1.43573759       0.67755836    2345.34973180    -129.35774591     895.19753947
C        0.85295321      -0.60092380       0.24865297     295.47245782    1775.37936861   -1599.80566781
C        0.34143844       0.60604457      -0.31849672    -711.80979072     827.61133921     711.24980427
O        0.90998128      -2.15949213       2.11613366     882.42799704     405.50820268   -1340.67746237
O       -2.04623376       0.63572153      -1.44454477    -413.30574414     157.88013420     573.55972726
O       -0.84669039      -0.87388933       1.85590878      71.85022202     228.27305446    -593.62452027
C        0.39300309      -1.27740918       1.42106101   -1889.52445761   -1038.30138454    3032.12452832
C       -2.01626773       1.01329740      -0.29408370     531.41383005      -6.10122986     547.07483607
O       -0.79259419       1.17055337       0.42251546    1074.33242504    -388.10964455   -2644.48174484
H       -0.93519069      -1.47609521       2.61354918    -352.50998389    -242.11922099     553.06298878
H        2.45289722      -1.89806248       0.06348227    1295.11605915   -2712.56509377    1185.19313433
H        0.44177627       2.07061387      -1.91627119    -409.32485235    1041.63538656    -255.39419105
H        3.26755321      -1.17366287      -2.08447690    -199.79118677     996.56383007     772.16985168
H        2.40815519       1.04898833      -3.03403465     243.29015319      17.61201118    -667.39304301
H       -2.80477999       0.98027054       1.69884163    -878.19333728     328.97414902   -1320.88278956
H       -2.85632994       2.51362564       0.80978177    -662.80357090      -5.54839107      37.95119241
H       -4.11511424       1.23906296       0.30585253    -552.71763809     -60.99424948     -30.43153588
21
Properties=species:S:1:pos:R:3:forces:R:3 energy=-17618054.71477568 pbc="F F F"
C        1.59372447      -1.48659762      -0.81963395    1703.55449767    -201.46070746    -691.11199191
C        0.78526029       0.96807627      -1.85208731   -1138.70788201      14.74841836    -176.27833757
C        2.39996528      -0.83995272      -1.79804405    -516.42953861   -1495.69775756      53.40522456
C        1.91601529       0.32754054      -2.36408417       0.45277142    1193.90172079     572.86938583
C       -2.65340350       1.82451800       1.08644865    2639.93197057     723.71040284    1300.57430731
C        0.48491356      -0.88211398      -0.25739559    -763.97250355     -47.73969398     255.58260155
C        0.12531125       0.37702628      -0.73813400   -1138.24534039    2677.69012449   -1109.61270316
O       -1.37841152      -1.10912124       1.22991013    -460.97905222    -312.25760195    -183.91528787
O       -0.24974369       2.14081395       1.58328518     -83.15778328    -233.09346314     187.45292133
O        0.32603272      -2.61013112       1.46016603   -2481.84223997    1418.58078319    -240.76352926
C       -0.33908243      -1.54578365       0.77109247    1689.17045617    -358.50276459    1757.31443174
C       -1.16126330       1.71849277       0.91557452     365.46587994    -185.74452554     -32.69626715
O       -0.99334938       1.11844677      -0.31097392     853.91054527   -1522.10983508    -988.22769374
H       -0.40464567      -2.66530356       2.17205177    1304.88538028    -556.82600522    -665.95250484
H        1.83822848      -2.46896293      -0.42080896     329.62376417    -411.39736788     -12.40336579
H        0.27835763       1.83251702      -2.41755790     865.20828491    -803.67405216    1118.93742899
H        3.27080777      -1.32923421      -2.28795550    -182.32140906      49.18866537     568.37252488
H        2.51006946       0.90529853      -3.05786643     341.71875174      -5.62804388    -943.63621380
H       -2.72532294       2.48542787       1.93056905    -916.52495024     809.93854713     650.28985332
H       -2.88775033       2.20543921       0.13481432   -1522.54707703     767.92963834   -1525.68644648
H       -2.99288742       0.84564665       1.30105984    -889.19462863   -1521.55643065     105.48561063
21
Properties=species:S:1:pos:R:3:forces:R:3 energy=-17617901.345549073 pbc="F F F"
C        2.16071555      -0.94739622      -0.23421983   -1207.83458495    1724.47449129   -2732.23100569