64
energy=-9847.66167100 config_type=bulk_amo detailed_ct=step0 task=SinglePoint cut_off_energy="650 eV" spin_polarized=F opt_strategy=speed xc_functional=LDA elec_energy_tol=0.00000001 max_scf_cycles=200 fix_occupancy=F smearing_width="0.1 eV" mixing_scheme=Pulay calculate_stress=T finite_basis_corr=automatic popn_calculate=F pdos_calculate_weights=F write_checkpoint=none mix_charge_amp=0.15000000 mix_history_length=20 nextra_bands=24 kpoints_mp_grid="4       4       4" castep_file_name=30.castep castep_run_time=18106.17000000 virNOTUSED="-208.21454445       0.17486508     -17.46095260       0.17486508    -205.81790145       9.27997242     -17.46095260       9.27997242    -204.81332700" cutoff=-1.00000000 nneightol=1.20000000 pbc="T T T" Lattice="9.48392100       0.00000000       0.00000000       0.00000000       9.48392100       0.00000000       0.00000000       0.00000000       9.48392100" Properties=species:S:1:pos:R:3:Z:I:1:frac_pos:R:3:force:R:3
C              -0.47134139     -0.04477359      0.48310145       6     -0.04969900     -0.00472100      0.05093900     -2.20205837     -2.01765205     -0.15904453
C               0.54935612      0.22527158      2.38797544       6      0.05792500      0.02375300      0.25179200      1.02614224      1.48376855     -0.56793925
C               0.00229511      0.65396377      4.48322965       6      0.00024200      0.06895500      0.47271900      3.28920068      2.02660427      0.96432705
C              -0.06914727      0.01284123      6.91309557       6     -0.00729100      0.00135400      0.72892800     -1.19053788      1.48881743     -0.57238364
C               0.17440931      2.59647944      0.60208672       6      0.01839000      0.27377700      0.06348500     -0.03386731      2.38572095      3.60431572
C              -0.08619936      2.51130435      2.10596156       6     -0.00908900      0.26479600      0.22205600      1.73878682     -1.31527992     -4.43509855
C              -0.40812157      1.93352491      4.80789272       6     -0.04303300      0.20387400      0.50695200     -1.91744613     -2.21194643     -0.53485263
C               0.12346168      2.40935219      7.47606112       6      0.01301800      0.25404600      0.78828800     -0.41942147     -1.50425310     -0.27135499
C               0.26444965      4.65280216      0.60983509       6      0.02788400      0.49059900      0.06430200      0.13902909     -1.78513039      1.19908889
C              -0.33478241      5.37819882      2.42632841       6     -0.03530000      0.56708600      0.25583600     -0.45020445      1.03648438     -1.65667893
C               0.31992111      4.64713077      4.41334264       6      0.03373300      0.49000100      0.46535000      4.67090909      0.32639588      0.74413162
C              -0.31085448      5.00483582      7.50619153       6     -0.03277700      0.52771800      0.79146500     -4.41121043      2.53889252      0.00408531
C              -0.24370832      7.37313212     -0.18823686       6     -0.02569700      0.77743500     -0.01984800     -4.49623640      1.38529392      0.49587303
C               0.32532694      6.91830224      2.16640259       6      0.03430300      0.72947700      0.22842900     -1.64098095     -3.20005984      1.29837057
C               0.53293946      7.43218850      4.64029287       6      0.05619400      0.78366200      0.48928000      3.42209453     -0.99841582     -0.44596363
C              -0.63803079      7.04271231      7.19620009       6     -0.06727500      0.74259500      0.75877900     -3.32417698     -1.24820907      1.25348681
C               2.05510878     -0.37562966     -0.34946352       6      0.21669400     -0.03960700     -0.03684800      2.26551932     -3.42091853     -1.07084957
C               2.41589610      0.60139440      2.30104582       6      0.25473600      0.06341200      0.24262600     -2.22956543      2.64603491      0.46024683
C               1.92840359      0.57279089      4.77844514       6      0.20333400      0.06039600      0.50384700     -0.76732180      1.95038256      0.24575148
C               2.31810739      0.02556865      6.82457265       6      0.24442500      0.00269600      0.71959400      0.44672073      2.88015890     -0.22226896
C               2.39477541      2.58062232      0.41996699       6      0.25250900      0.27210500      0.04428200     -1.75958061      3.53512226     -0.31713504
C               2.09882965      2.21111928      2.15013767       6      0.22130400      0.23314400      0.22671400      0.47469909     -2.79574226     -3.00556346
C               2.92364626      2.24819192      4.45061445       6      0.30827400      0.23705300      0.46928000      3.06999844     -2.13497894      0.86599020
C               2.26511124      1.94747576      7.50929278       6      0.23883700      0.20534500      0.79179200     -0.67515159     -1.01766719     -0.17868906
C               2.33117623      3.87660013     -0.43474294       6      0.24580300      0.40875500     -0.04584000     -0.24118731     -3.11190168      2.26473253
C               2.49284863      5.06023140      2.25646190       6      0.26285000      0.53355900      0.23792500      1.12966005      0.31487766      0.16241739
C               1.71770880      4.53774323      5.01443355       6      0.18111800      0.47846700      0.52873000     -4.26562879      0.08006657     -0.96057072
C               2.29163777      4.48978304      7.02786998       6      0.24163400      0.47341000      0.74103000      1.59585771      1.44539894     -0.84738680
C               2.70085947      7.33807955     -0.37203525       6      0.28478300      0.77373900     -0.03922800     -0.81873162      3.99735754     -1.37956061
C               2.97248846      7.60436908      2.37779919       6      0.31342400      0.80181700      0.25071900     -2.59344027     -2.67037349     -0.19799699
C               1.89279147      7.22436734      4.87302829       6      0.19957900      0.76174900      0.51382000     -3.12064316     -0.11649180      2.08404624
C               2.28136668      6.79100905      6.89149119       6      0.24055100      0.71605500      0.72665000      1.96427936     -0.39049936     -0.81355711
C               4.67959424     -0.30715575     -0.43612759       6      0.49342400     -0.03238700     -0.04598600     -0.55228550     -0.12414285     -0.58943051
C               4.48430133      0.03370586      2.31240755       6      0.47283200      0.00355400      0.24382400     -2.55644910     -3.56836693      0.24491201
C               4.99005987      0.23643415      4.77892882       6      0.52616000      0.02493000      0.50389800     -0.09203109      1.20588613      2.90388883
C               4.46610169      0.03584922      6.57018544       6      0.47091300      0.00378000      0.69277100     -0.93831882     -0.87622283     -1.45527511
C               4.85748414      2.26111851     -0.48604147       6      0.51218100      0.23841600     -0.05124900      2.70623866     -0.36047592     -3.99285597
C               4.93151563      2.67758593      2.40353855       6      0.51998700      0.28232900      0.25343300      1.38220103      4.70229079      1.31572576
C               4.41426258      2.32751544      4.61355769       6      0.46544700      0.24541700      0.48646100     -4.09513123     -1.19887613     -2.12968327
C               4.54754960      2.10836099      7.55849536       6      0.47950100      0.22230900      0.79698000     -0.46901712     -0.84374269      4.36526973
C               4.86803026      4.98618095     -0.14821472       6      0.51329300      0.52575100     -0.01562800      2.57993199      5.06840663      0.89608687
C               4.76985271      4.36303992      2.34156113       6      0.50294100      0.46004600      0.24689800     -1.45651425     -3.60042355      3.10968318
C               4.74738530      4.76867671      4.24342871       6      0.50057200      0.50281700      0.44743400      1.86362997      0.26891592     -2.25341044
C               4.48373230      4.97051351      6.82486665       6      0.47277200      0.52409900      0.71962500     -2.06974270      0.68472380      0.76933406
C               5.23707808      6.58570113     -0.00560500       6      0.55220600      0.69440700     -0.00059100     -1.48671693     -4.21281205     -0.80963698
C               4.21452172      7.81783318      2.30310383       6      0.44438600      0.82432500      0.24284300      2.99775358      4.35490439      0.65984225
C               5.09388036      7.03264987      4.51201335       6      0.53710700      0.74153400      0.47575400      4.88368806     -1.19373393      0.69932874
C               4.45903617      7.43586826      7.14675093       6      0.47016800      0.78405000      0.75356500     -1.38336079      0.39052396     -0.13229822
C               7.29614165     -0.15260577     -0.19748369       6      0.76931700     -0.01609100     -0.02082300      3.01636750     -1.72841138      3.21758528
C               7.42540750     -0.35049727      1.92667752       6      0.78294700     -0.03695700      0.20315200      0.03045421     -2.25456784     -2.16916619
C               7.22090571      0.01865487      4.89779081       6      0.76138400      0.00196700      0.51643100     -2.04313402      2.73296455      2.92387306
C               7.22871097      0.13555368      6.79840651       6      0.76220700      0.01429300      0.71683500      2.20992971      0.12581696     -3.01408885
C               6.70003928      2.60441748     -0.13743150       6      0.70646300      0.27461400     -0.01449100     -3.02483075      0.73380719     -0.89273570
C               7.09700776      2.57599417      2.54230728       6      0.74832000      0.27161700      0.26806500     -1.05066692      0.39147434      1.92751763
C               7.00639838      2.04355736      4.51946771       6      0.73876600      0.21547600      0.47654000      3.03256621     -1.62718903     -1.05841998
C               7.45363164      2.31205665      6.96949644       6      0.78592300      0.24378700      0.73487500      1.29114701     -2.15670510      0.74939825
C               6.99233373      4.74703440      0.42225261       6      0.73728300      0.50053500      0.04452300     -1.20029278     -1.47522725     -0.20984440
C               7.64613627      4.92298958      2.37360730       6      0.80622100      0.51908800      0.25027700      1.69847252      1.20534991     -1.13477052
C               6.97746294      5.16672635      4.71675224       6      0.73571500      0.54478800      0.49734200     -2.11334212      3.42714128     -1.31365450
C               7.34119028      5.31116647      7.52798558       6      0.77406700      0.56001800      0.79376300      4.11755461      0.88212131     -0.09534644
C               7.59824247      7.40799502      0.34121251       6      0.80117100      0.78111100      0.03597800      1.91612475      1.36280972      2.72489479
C               7.02610597      7.10782892      1.85234255       6      0.74084400      0.74946100      0.19531400      2.04527917      2.50787922     -4.20627899
C               6.64200717      7.02234085      4.75949627       6      0.70034400      0.74044700      0.50184900     -3.60576719     -2.91001986      1.31253746
C               7.22784794      7.33597412      6.84521914       6      0.76211600      0.77351700      0.72177100      3.69075611     -1.49595613     -0.37295105
64
energy=-9886.44024500 config_type=bulk_amo detailed_ct=step0 task=SinglePoint cut_off_energy="650 eV" spin_polarized=F opt_strategy=speed xc_functional=LDA elec_energy_tol=0.00000001 max_scf_cycles=200 fix_occupancy=F smearing_width="0.1 eV" mixing_scheme=Pulay calculate_stress=T finite_basis_corr=automatic popn_calculate=F pdos_calculate_weights=F write_checkpoint=none mix_charge_amp=0.15000000 mix_history_length=20 nextra_bands=24 kpoints_mp_grid="4       4       4" castep_file_name=60.castep castep_run_time=12047.38000000 virNOTUSED="-169.73333831     -10.19694396     -10.87864306     -10.19694396    -142.06931370      11.09171396     -10.87864306      11.09171396    -140.69168415" cutoff=-1.00000000 nneightol=1.20000000 pbc="T T T" Lattice="9.48392100       0.00000000       0.00000000       0.00000000       9.48392100       0.00000000       0.00000000       0.00000000       9.48392100" Properties=species:S:1:pos:R:3:Z:I:1:frac_pos:R:3:force:R:3
C              -0.27141085     -0.53642006      0.21791205       6     -0.02861800     -0.05656100      0.02297700     -0.90084585      2.37347816      0.49621734
C               0.62754157      0.07674389      2.56528682       6      0.06616900      0.00809200      0.27048800      1.65476894      1.84074885     -1.23656565
C              -0.05219950      0.75961465      4.72385569       6     -0.00550400      0.08009500      0.49809100      2.88359459     -1.18595281      0.38787867
C              -0.43148047      0.01565795      6.82367168       6     -0.04549600      0.00165100      0.71949900     -2.23058644      1.15319583     -2.39759748
C               0.02179405      2.85268757      0.70199035       6      0.00229800      0.30079200      0.07401900      1.21589693      2.89644239      4.05125928
C               0.09241133      2.44264076      2.07135473       6      0.00974400      0.25755600      0.21840700     -0.43702337     -0.35588036     -3.70369589
C              -0.40351239      2.02366958      4.63118830       6     -0.04254700      0.21337900      0.48832000     -1.06182088      2.81639958      1.96130687
C               0.08156172      2.23502824      7.51894741       6      0.00860000      0.23566500      0.79281000      2.51819964     -1.96831498      0.13909197
C               0.51744273      4.44654584      1.14639740       6      0.05456000      0.46885100      0.12087800      0.59488862     -6.23972219     -4.40136547
C               0.02378567      5.04678320      2.12376288       6      0.00250800      0.53214100      0.22393300     -4.36699819      5.84843833      5.66812114
C               0.56346820      4.12182587      4.49193589       6      0.05941300      0.43461200      0.47363700      4.23533821      0.40953908      0.93453996
C              -0.22591648      5.20360932      8.04845369       6     -0.02382100      0.54867700      0.84864200     -5.96095854      1.39391182     -2.69557396
C              -0.60889618      7.79137304     -0.31474289       6     -0.06420300      0.82153500     -0.03318700     -2.28167768     -3.89480010      1.08151038
C               0.71441429      6.73574624      2.49244083       6      0.07532900      0.71022800      0.26280700      1.81429911      0.06533845      2.77478584
C               0.56117309      7.18028607      4.37165132       6      0.05917100      0.75710100      0.46095400      5.56118006     -2.03539498     -1.61571307
C              -1.00007947      6.75543486      7.13130162       6     -0.10545000      0.71230400      0.75193600     -3.60385841     -0.43077359      2.19895263
C               2.30767508     -0.90307793     -0.45713448       6      0.24332500     -0.09522200     -0.04820100      3.04856092      1.03518588     -0.03042555
C               2.25901308      0.89624950      1.66482646       6      0.23819400      0.09450200      0.17554200     -1.60943838      0.57306320      2.20261012
C               1.94831034      0.81792180      4.79444452       6      0.20543300      0.08624300      0.50553400      0.02818622      1.91406356     -0.47906050
C               2.62677108      0.14023874      7.07986083       6      0.27697100      0.01478700      0.74651200     -1.49888561      4.80618421      1.25503799
C               2.65655060      2.84896987      0.46018830       6      0.28011100      0.30040000      0.04852300      0.46458760      2.52661894     -2.10762239
C               2.38435258      2.27080159      1.65368285       6      0.25141000      0.23943700      0.17436700      0.35446751     -2.91966695     -1.88286714
C               3.03437104      2.21620266      4.00791450       6      0.31994900      0.23368000      0.42260100     -0.68251645     -1.68301324      1.44224421
C               2.06314166      1.77014540      7.47177438       6      0.21754100      0.18664700      0.78783600     -1.65754459     -3.35747916     -1.31564618
C               2.85292466      3.61819173     -0.67290316       6      0.30081700      0.38150800     -0.07095200     -0.85365824     -0.23193929     -0.40507882
C               2.55396302      5.21197414      2.41301299       6      0.26929400      0.54955900      0.25443200      3.74189351     -0.99710879      0.03790726
C               1.92469538      4.58702168      4.84262284       6      0.20294300      0.48366300      0.51061400     -4.49709190     -0.30144763     -1.51052202
C               2.45546302      4.60171228      7.48545020       6      0.25890800      0.48521200      0.78927800      5.51474549     -1.99351882      1.45709611
C               2.41302247      7.24499487     -0.49253795       6      0.25443300      0.76392400     -0.05193400     -0.30671200      1.01878388     -3.37290835
C               2.36616242      7.44652819      2.12768922       6      0.24949200      0.78517400      0.22434700     -1.30538938     -3.09065933      1.00573287
C               2.04972191      6.90679824      4.97224907       6      0.21612600      0.72826400      0.52428200     -5.10835269     -0.64956568     -2.10611742
C               2.50004693      6.94612806      7.53638834       6      0.26360900      0.73241100      0.79464900      4.04761040     -0.63621477      2.27560192
C               4.28321376     -0.21262002     -0.38416519       6      0.45162900     -0.02241900     -0.04050700     -2.30543991     -0.91779351      0.36811074
C               4.80754181     -0.33959076      2.17585806       6      0.50691500     -0.03580700      0.22942600     -0.37410192     -4.86636278     -0.36371309
C               5.27870301      0.96005732      4.91512741       6      0.55659500      0.10123000      0.51825900     -0.38573156      2.83814641     -3.83444216
C               4.80686846      0.56582969      6.07097080       6      0.50684400      0.05966200      0.64013300      0.90863086      3.56887020      6.41931389
C               4.84388420      2.57793837     -0.45777938       6      0.51074700      0.27182200     -0.04826900      3.96763937     -1.53311166     -2.01427295
C               5.01831247      2.80144594      2.87227186       6      0.52913900      0.29538900      0.30285700      0.98155060      0.97585109      0.30163362
C               4.88258808      2.24633308      4.16120311       6      0.51482800      0.23685700      0.43876400     -2.24165674     -2.70741903     -0.80854045
C               5.10523261      1.55518285      7.25384336       6      0.53830400      0.16398100      0.76485700     -1.41123638     -2.64252162     -0.86876123
C               4.71852573      5.01597943     -0.17690358       6      0.49752900      0.52889300     -0.01865300      1.94995290      5.09280976      1.39414342
C               4.16973864      4.59764367      2.34866458       6      0.43966400      0.48478300      0.24764700     -1.63618008     -0.16187389      2.36082562
C               5.09405107      5.06936442      4.23544325       6      0.53712500      0.53452200      0.44659200      1.38895110      3.31545220     -1.60021746
C               4.04825910      4.72883475      6.76719493       6      0.42685500      0.49861600      0.71354400     -4.03069811      1.29073728      2.03653808
C               5.02849821      6.51090144      0.06684268       6      0.53021300      0.68652000      0.00704800     -0.35351765     -5.22274089     -1.30350604
C               4.44183234      7.68264937      2.35116834       6      0.46835400      0.81007100      0.24791100      0.08959979      3.87101371      0.36202067
C               5.27970830      6.59762242      4.16486391       6      0.55670100      0.69566400      0.43915000     -1.20148813     -2.06752235     -0.71567963
C               4.29922262      7.20625305      7.16198211       6      0.45331700      0.75983900      0.75517100     -3.70935165     -1.97249905      1.28017409
C               7.63692739     -0.69460237      0.13411213       6      0.80525000     -0.07324000      0.01414100      1.41195397     -0.68473029      2.45588575
C               7.30098794     -0.76211841      2.35283751       6      0.76982800     -0.08035900      0.24808700     -1.83238496     -1.33144693     -1.50659146
C               7.42546440      0.29409639      4.94440428       6      0.78295300      0.03101000      0.52134600     -0.47472049      0.12576734      1.12903597
C               7.41047980     -0.28004122      6.19898477       6      0.78137300     -0.02952800      0.65363100      4.13047036     -1.81993954      2.53694462
C               6.26618783      2.52164182     -0.23773345       6      0.66071700      0.26588600     -0.02506700     -4.39871662      0.48209331     -0.81150354
C               7.08853862      2.19799353      2.92982978       6      0.74742700      0.23176000      0.30892600     -2.31270543      1.58916563      3.12228677
C               6.63805237      2.26192464      4.39963837       6      0.69992700      0.23850100      0.46390500      1.92886855     -0.89604936     -1.15226708
C               7.64244703      2.05144798      6.15001928       6      0.80583200      0.21630800      0.64846800      0.43950827     -0.41550774     -3.62725238
C               6.96839631      5.29832524      0.19807169       6      0.73475900      0.55866400      0.02088500     -1.64910162      0.59326106     -1.11294154
C               7.84978451      4.92336894      2.70346755       6      0.82769400      0.51912800      0.28505800      1.25835963      0.60122627     -0.35862990
C               6.68766276      5.55310130      4.38706269       6      0.70515800      0.58552800      0.46257900     -2.03712566      0.04399159     -1.62667575
C               7.70035585      5.15863657      7.55706329       6      0.81193800      0.54393500      0.79682900      5.79052122      1.77887529      2.87704829
C               7.56706882      7.31361103      0.70291977       6      0.79788400      0.77115900      0.07411700      0.47725720      2.27800945     -2.68571131
C               6.62693722      6.91824534      1.65530460       6      0.69875500      0.72947100      0.17453800      2.22917930      0.26473210     -0.02295563
C               6.39848853      6.87657299      4.87825393       6      0.67466700      0.72507700      0.51437100      1.68779902     -0.80202310      1.14213492
C               7.30624203      7.55712019      6.92834571       6      0.77038200      0.79683500      0.73053600      2.39905563      0.63159955     -3.48156950
64
energy=-9916.68169200 config_type=bulk_amo detailed_ct=step0 task=SinglePoint cut_off_energy="650 eV" spin_polarized=F opt_strategy=speed xc_functional=LDA elec_energy_tol=0.00000001 max_scf_cycles=200 fix_occupancy=F smearing_width="0.1 eV" mixing_scheme=Pulay calculate_stress=T finite_basis_corr=automatic popn_calculate=F pdos_calculate_weights=F write_checkpoint=none mix_charge_amp=0.15000000 mix_history_length=20 nextra_bands=24 kpoints_mp_grid="4       4       4" castep_file_name=90.castep castep_run_time=19135.47000000 virNOTUSED="-128.88651810     -22.72874993      19.89558312     -22.72874993     -87.16579308      -6.55932004      19.89558312      -6.55932004    -133.44432400" cutoff=-1.00000000 nneightol=1.20000000 pbc="T T T" Lattice="9.48392100       0.00000000       0.00000000       0.00000000       9.48392100       0.00000000       0.00000000       0.00000000       9.48392100" Properties=species:S:1:pos:R:3:Z:I:1:frac_pos:R:3:force:R:3
C              -0.45543685     -0.55479041     -0.11436660       6     -0.04802200     -0.05849800     -0.01205900     -3.06658549      4.41790040      2.69365407
C               0.60682869      0.08668304      2.70491859       6      0.06398500      0.00914000      0.28521100     -0.76500041      3.03180617      2.21371789
C              -0.15114525      0.80620916      4.26209307       6     -0.01593700      0.08500800      0.44940200      5.27751376     -2.83984808     -3.22433632
C              -0.25376127     -0.36521631      6.39130920       6     -0.02675700     -0.03850900      0.67391000     -4.35796257     -0.97470774     -0.07486734
C               0.41136507      3.13309866      0.91380424       6      0.04337500      0.33035900      0.09635300     -2.07135574     -1.76585179      4.35240539
C              -0.37590469      2.41376222      2.17715736       6     -0.03963600      0.25451100      0.22956300      0.33288332     -0.07777856     -1.99983827
C              -0.97865529      1.68536863      4.70962981       6     -0.10319100      0.17770800      0.49659100     -2.35493774     -0.07970730      2.58266155
C               0.45300897      2.11265721      7.29472855       6      0.04776600      0.22276200      0.76916800      5.37127510     -2.24350143      0.68206381
C               0.69136836      4.43143796      1.18082404       6      0.07289900      0.46725800      0.12450800     -1.11769593      3.14146059      5.21424832
C              -0.34074780      5.34686395      2.19382061       6     -0.03592900      0.56378200      0.23132000     -2.45888631     -2.09536038      0.80372988
C               0.49693849      4.05621611      4.48698528       6      0.05239800      0.42769400      0.47311500      2.82064172      1.79063278     -0.29622837
C              -0.74252463      5.35867143      7.63397789       6     -0.07829300      0.56502700      0.80493900     -1.66052612      4.35677040      1.68842789
C              -0.53375507      7.65204476     -0.11614958       6     -0.05628000      0.80684400     -0.01224700     -4.51838663     -6.49312688     -2.27539726
C               1.23567903      6.87496072      2.77584884       6      0.13029200      0.72490700      0.29269000     -1.82726567      0.47036931      3.22690246
C               0.82408635      7.05441547      4.50534615       6      0.08689300      0.74382900      0.47505100      0.27448207     -0.02460972     -3.73577585
C              -1.34519935      6.83624735      7.92183386       6     -0.14184000      0.72082500      0.83529100      1.34097025     -3.22886678     -2.97949760
C               2.23391862     -0.26913471     -0.42990614       6      0.23554800     -0.02837800     -0.04533000      1.74010019     -1.50982001     -3.35218832
C               2.03551500      1.13616425      1.45378077       6      0.21462800      0.11979900      0.15328900     -0.36158144      1.22749772      0.51241356
C               2.13355029      0.74683033      4.70727780       6      0.22496500      0.07874700      0.49634300     -0.02811095      2.32726393     -2.05166230
C               2.32183457      0.30893873      7.32624362       6      0.24481800      0.03257500      0.77249100     -0.35736278     -0.58391260      4.07833857
C               2.74550029      2.69841262      0.43191673       6      0.28949000      0.28452500      0.04554200     -2.80460686     -3.44917703     16.28186991
C               2.42274349      3.00854632      1.84773336       6      0.25545800      0.31722600      0.19482800      0.22610286     -1.49008903     -1.39318700
C               3.17403126      2.29314571      3.87494993       6      0.33467500      0.24179300      0.40858100     -1.75317289     -2.87916992      1.11017932
C               1.90938833      1.54825959      7.49652742       6      0.20132900      0.16325100      0.79044600     -5.98530065      2.56407696     -1.69456871
C               2.83262907      3.10287340     -0.66875869       6      0.29867700      0.32717200     -0.07051500      3.87808008      3.45889645    -14.11660573
C               2.10150412      4.43150435      2.42509550       6      0.22158600      0.46726500      0.25570600     -0.63025934     -1.91638563     -2.36504595
C               1.52947194      4.94652868      4.55114401       6      0.16127000      0.52157000      0.47988000     -1.63903862      0.80060321      0.48649649
C               2.86753939      4.25503703      7.92167263       6      0.30235800      0.44865800      0.83527400      2.73372662      0.10324324     -0.63506663
C               2.16856492      7.20475459     -0.57085617       6      0.22865700      0.75968100     -0.06019200      0.60570776      2.32987001     -2.06768331
C               2.30943909      7.46968792      2.42691642       6      0.24351100      0.78761600      0.25589800      2.43919176      0.55965913     -0.29909539
C               1.89229831      6.58323531      5.06746764       6      0.19952700      0.69414700      0.53432200      0.07188093     -4.19983600     -0.47216217
C               2.65278548      6.99041797      7.65339147       6      0.27971400      0.73708100      0.80698600      4.04226038      1.78506083      1.43295619
C               4.64895169     -0.07214419     -0.75554605       6      0.49019300     -0.00760700     -0.07966600     -1.30791690      0.65249921     -0.36992968
C               5.02908621     -0.30649187      2.00726240       6      0.53027500     -0.03231700      0.21164900     -1.73917413     -5.18871111      1.84159813
C               5.16553138      1.05975230      4.65581805       6      0.54466200      0.11174200      0.49091700      1.37976987      3.91037820      3.80975470
C               4.76441842      1.22879371      6.08700811       6      0.50236800      0.12956600      0.64182400      1.91716955      0.12281205     -0.13767625
C               4.29569460      2.47929611     -0.94392517       6      0.45294500      0.26142100     -0.09952900      6.09458541     -1.40114620     -0.26842419
C               4.80879369      3.12027640      2.70943294       6      0.50704700      0.32900700      0.28568700     -0.97449175     -0.70975778      2.77574450