4
Lattice="2.321189 0.0 0.0 -1.155982 1.986034 0.0 -0.37381 -0.001243 6.457295" Properties=species:S:1:pos:R:3:frac_pos:R:3:force:R:3 energy=-632.106478 config_type=bulk_cryst detailed_ct=dist_graphite task=SinglePoint cut_off_energy="650 eV" spin_polarized=F opt_strategy=speed xc_functional=LDA elec_energy_tol=1e-08 max_scf_cycles=200 fix_occupancy=F smearing_width="0.1 eV" mixing_scheme=Pulay calculate_stress=T finite_basis_corr=automatic popn_calculate=F pdos_calculate_weights=F write_checkpoint=none mix_charge_amp=0.15 mix_history_length=20 nextra_bands=8 kpoints_mp_grid="17 17 6" castep_file_name=1.castep castep_run_time=273.52 virial="17.67401361 0.99922643 0.10156025 0.99922643 19.15963338 0.02964023 0.10156025 0.02964023 0.10558305" cutoff=-1.0 nneightol=1.2 pbc="T T T"
C       -0.08351854      -0.00307582       1.62727708       0.00391000      -0.00139100       0.25200600       1.84408021       1.20057170      -0.34951743
C       -0.24989754      -0.00561640       4.83828971       0.01183100      -0.00235900       0.74927500      -1.59537066      -0.04418886      -0.07245937
C       -0.05879422       1.33906047       1.60493484       0.35055400       0.67439400       0.24854600      -1.84344108      -1.20566233       0.34496235
C        0.89262710       0.65180941       4.83365983       0.66878500       0.32866500       0.74855800       1.59473154       0.04927949       0.07701445
4
Lattice="2.405488 0.0 0.0 -1.14898 1.990093 0.0 0.0 -0.28387 6.220623" Properties=species:S:1:pos:R:3:frac_pos:R:3:force:R:3 energy=-632.543012 config_type=bulk_cryst detailed_ct=dist_graphite task=SinglePoint cut_off_energy="650 eV" spin_polarized=F opt_strategy=speed xc_functional=LDA elec_energy_tol=1e-08 max_scf_cycles=200 fix_occupancy=F smearing_width="0.1 eV" mixing_scheme=Pulay calculate_stress=T finite_basis_corr=automatic popn_calculate=F pdos_calculate_weights=F write_checkpoint=none mix_charge_amp=0.15 mix_history_length=20 nextra_bands=8 kpoints_mp_grid="17 17 6" castep_file_name=2.castep castep_run_time=354.05 virial="6.60706995 -3.00151812 -0.00603907 -3.00151812 17.69301875 0.07264784 -0.00603907 0.07264784 0.52214586" cutoff=-1.0 nneightol=1.2 pbc="T T T"
C        0.00123889      -0.06918438       1.55515575       0.00094300       0.00089600       0.25000000      -0.75490879      -1.45687454       0.00209675
C       -0.00123889      -0.21468562       4.66546725      -0.00094300      -0.00089600       0.75000000       0.75490879       1.45687454      -0.00209675
C        0.03460259       1.25397871       1.55515575       0.33239000       0.66577100       0.25000000       0.75697273       1.46692977       0.00134899
C        1.22190541       0.45224429       4.66546725       0.66761000       0.33422900       0.75000000      -0.75697273      -1.46692977      -0.00134899
4
Lattice="2.380435 0.0 0.0 -1.102168 1.990359 0.0 0.0 0.0 6.375208" Properties=species:S:1:pos:R:3:frac_pos:R:3:force:R:3 energy=-632.401152 config_type=bulk_cryst detailed_ct=dist_graphite task=SinglePoint cut_off_energy="650 eV" spin_polarized=F opt_strategy=speed xc_functional=LDA elec_energy_tol=1e-08 max_scf_cycles=200 fix_occupancy=F smearing_width="0.1 eV" mixing_scheme=Pulay calculate_stress=T finite_basis_corr=automatic popn_calculate=F pdos_calculate_weights=F write_checkpoint=none mix_charge_amp=0.15 mix_history_length=20 nextra_bands=8 kpoints_mp_grid="17 17 6" castep_file_name=3.castep castep_run_time=131.3 virial="9.58571737 -5.06130712 -0.0 -5.06130712 18.27520464 -0.0 -0.0 -0.0 0.23721189" cutoff=-1.0 nneightol=1.2 pbc="T T T"
C        0.00179442       0.00128179       1.59380200       0.00105200       0.00064400       0.25000000      -1.32225972      -1.05234576       0.00000000
C       -0.00179442      -0.00128179       4.78140600      -0.00105200      -0.00064400       0.75000000       1.32225972       1.05234576       0.00000000
C        0.05690408       1.32562487       1.59380200       0.33228100       0.66602300       0.25000000       1.32416036       1.05514543       0.00000000
C        1.22136292       0.66473413       4.78140600       0.66771900       0.33397700       0.75000000      -1.32416036      -1.05514543      -0.00000000
4
Lattice="2.297961 0.0 0.0 -1.14898 1.990093 0.0 0.0 0.276739 6.26138" Properties=species:S:1:pos:R:3:frac_pos:R:3:force:R:3 energy=-632.000874 config_type=bulk_cryst detailed_ct=dist_graphite task=SinglePoint cut_off_energy="650 eV" spin_polarized=F opt_strategy=speed xc_functional=LDA elec_energy_tol=1e-08 max_scf_cycles=200 fix_occupancy=F smearing_width="0.1 eV" mixing_scheme=Pulay calculate_stress=T finite_basis_corr=automatic popn_calculate=F pdos_calculate_weights=F write_checkpoint=none mix_charge_amp=0.15 mix_history_length=20 nextra_bands=8 kpoints_mp_grid="17 17 6" castep_file_name=4.castep castep_run_time=271.37 virial="19.75528701 5e-06 -0.0 5e-06 19.75627925 -0.06725693 -0.0 -0.06725693 0.39187056" cutoff=-1.0 nneightol=1.2 pbc="T T T"
C        0.00000000       0.06918475       1.56534500       0.00000000       0.00000000       0.25000000       0.00000000       0.00035048      -0.00012486
C        0.00000000       0.20755425       4.69603500      -0.00000000      -0.00000000       0.75000000      -0.00000000      -0.00035048       0.00012486
C        0.00000033       1.39591209       1.56534500       0.33333300       0.66666600       0.25000000       0.00000000       0.00325723      -0.00034903
C        1.14898182       0.87091792       4.69603500       0.66666700       0.33333300       0.75000000      -0.00000000      -0.00325723       0.00034903
4
Lattice="2.402162 0.0 0.0 -1.170972 2.028185 0.0 0.0 0.473485 5.970667" Properties=species:S:1:pos:R:3:frac_pos:R:3:force:R:3 energy=-632.807899 config_type=bulk_cryst detailed_ct=dist_graphite task=SinglePoint cut_off_energy="650 eV" spin_polarized=F opt_strategy=speed xc_functional=LDA elec_energy_tol=1e-08 max_scf_cycles=200 fix_occupancy=F smearing_width="0.1 eV" mixing_scheme=Pulay calculate_stress=T finite_basis_corr=automatic popn_calculate=F pdos_calculate_weights=F write_checkpoint=none mix_charge_amp=0.15 mix_history_length=20 nextra_bands=8 kpoints_mp_grid="17 17 6" castep_file_name=5.castep castep_run_time=279.99 virial="6.03537832 -1.6808176 0.0061826 -1.6808176 11.98952022 -0.17140079 0.0061826 -0.17140079 1.20787688" cutoff=-1.0 nneightol=1.2 pbc="T T T"
C        0.00079303       0.11960641       1.49266675       0.00062700       0.00060900       0.25000000      -0.41303548      -0.74090396      -0.00085806
C       -0.00079303       0.35387859       4.47800025      -0.00062700      -0.00060900       0.75000000       0.41303548       0.74090396       0.00085806
C        0.01927844       1.46926009       1.49266675       0.33270600       0.66605800       0.25000000       0.41572023       0.76192784      -0.00400934
C        1.21191156       1.03240991       4.47800025       0.66729400       0.33394200       0.75000000      -0.41572023      -0.76192784       0.00400934
4
Lattice="2.292099 0.0 0.0 -1.223659 2.063605 0.0 0.021344 0.646819 6.294756" Properties=species:S:1:pos:R:3:frac_pos:R:3:force:R:3 energy=-632.261016 config_type=bulk_cryst detailed_ct=dist_graphite task=SinglePoint cut_off_energy="650 eV" spin_polarized=F opt_strategy=speed xc_functional=LDA elec_energy_tol=1e-08 max_scf_cycles=200 fix_occupancy=F smearing_width="0.1 eV" mixing_scheme=Pulay calculate_stress=T finite_basis_corr=automatic popn_calculate=F pdos_calculate_weights=F write_checkpoint=none mix_charge_amp=0.15 mix_history_length=20 nextra_bands=8 kpoints_mp_grid="17 17 6" castep_file_name=6.castep castep_run_time=250.76 virial="19.69944716 6.00446257 0.0504861 6.00446257 9.55857411 -0.05628092 0.0504861 -0.05628092 0.4045245" cutoff=-1.0 nneightol=1.2 pbc="T T T"
C        0.01526967       0.15893965       1.58664361       0.00325500      -0.00198500       0.25205800       3.07886121       2.56723529      -0.34493069
C        0.04646773       0.48043152       4.71638370       0.01220900      -0.00203600       0.74925600      -2.76534184      -1.56807832      -0.07804074
C       -0.01481984       1.55278985       1.56429722       0.35134700       0.67457200       0.24850800      -3.08746221      -2.55442087       0.34027175
C        1.14703980       1.16371447       4.71175076       0.66926500       0.32930600       0.74852000       2.77394284       1.55526390       0.08269968
4
Lattice="2.297961 0.0 0.0 -1.14898 1.990093 0.0 -0.26914 -0.155388 6.524288" Properties=species:S:1:pos:R:3:frac_pos:R:3:force:R:3 energy=-632.008576 config_type=bulk_cryst detailed_ct=dist_graphite task=SinglePoint cut_off_energy="650 eV" spin_polarized=F opt_strategy=speed xc_functional=LDA elec_energy_tol=1e-08 max_scf_cycles=200 fix_occupancy=F smearing_width="0.1 eV" mixing_scheme=Pulay calculate_stress=T finite_basis_corr=automatic popn_calculate=F pdos_calculate_weights=F write_checkpoint=none mix_charge_amp=0.15 mix_history_length=20 nextra_bands=8 kpoints_mp_grid="17 17 6" castep_file_name=7.castep castep_run_time=136.3 virial="19.79760746 0.00037803 0.04303307 0.00037803 19.79718455 0.02484508 0.04303307 0.02484508 0.02232567" cutoff=-1.0 nneightol=1.2 pbc="T T T"
C       -0.06728500      -0.03884700       1.63107200      -0.00000000       0.00000000       0.25000000      -0.00031381      -0.00018118      -0.00016661
C       -0.20185500      -0.11654100       4.89321600      -0.00000000      -0.00000000       0.75000000       0.00031381       0.00018118       0.00016661
C       -0.06728582       1.28788233       1.63107200       0.33333300       0.66666700       0.25000000      -0.00227089      -0.00131110      -0.00030580
C        0.94712682       0.54682267       4.89321600       0.66666700       0.33333300       0.75000000       0.00227089       0.00131110       0.00030580
4
Lattice="2.239543 0.0 0.0 -1.14898 1.990093 0.0 0.0 0.0 6.227097" Properties=species:S:1:pos:R:3:frac_pos:R:3:force:R:3 energy=-631.372874 config_type=bulk_cryst detailed_ct=dist_graphite task=SinglePoint cut_off_energy="650 eV" spin_polarized=F opt_strategy=speed xc_functional=LDA elec_energy_tol=1e-08 max_scf_cycles=200 fix_occupancy=F smearing_width="0.1 eV" mixing_scheme=Pulay calculate_stress=T finite_basis_corr=automatic popn_calculate=F pdos_calculate_weights=F write_checkpoint=none mix_charge_amp=0.15 mix_history_length=20 nextra_bands=8 kpoints_mp_grid="18 17 6" castep_file_name=8.castep castep_run_time=129.21 virial="27.90225137 1.99443164 -0.0 1.99443164 21.35068129 -0.0 -0.0 -0.0 0.40631327" cutoff=-1.0 nneightol=1.2 pbc="T T T"
C        0.00000000       0.00000000       1.55677425       0.00000000       0.00000000       0.25000000       0.59207288       0.95130336       0.00000000
C        0.00000000       0.00000000       4.67032275       0.00000000       0.00000000       0.75000000      -0.59207288      -0.95130336       0.00000000
C       -0.01947346       1.32672933       1.55677425       0.33333300       0.66666700       0.25000000      -0.59205538      -0.95506566       0.00000000
C        1.11003646       0.66336367       4.67032275       0.66666700       0.33333300       0.75000000       0.59205538       0.95506566       0.00000000
4
Lattice="2.297961 0.0 0.0 -1.14898 1.990093 0.0 0.0 0.527946 6.204677" Properties=species:S:1:pos:R:3:frac_pos:R:3:force:R:3 energy=-631.934921 config_type=bulk_cryst detailed_ct=dist_graphite task=SinglePoint cut_off_energy="650 eV" spin_polarized=F opt_strategy=speed xc_functional=LDA elec_energy_tol=1e-08 max_scf_cycles=200 fix_occupancy=F smearing_width="0.1 eV" mixing_scheme=Pulay calculate_stress=T finite_basis_corr=automatic popn_calculate=F pdos_calculate_weights=F write_checkpoint=none mix_charge_amp=0.15 mix_history_length=20 nextra_bands=8 kpoints_mp_grid="17 17 6" castep_file_name=9.castep castep_run_time=260.05 virial="20.61272485 1.38447491 0.03209901 1.38447491 19.10418911 -0.08720243 0.03209901 -0.08720243 0.5278406" cutoff=-1.0 nneightol=1.2 pbc="T T T"
C        0.00993294       0.12922210       1.56412462       0.00335100      -0.00194300       0.25208800       2.00671096       1.61030843      -0.34444440
C        0.03046062       0.39127623       4.64882322       0.01217900      -0.00215300       0.74924500      -1.74190018      -0.44667966      -0.06908009
C        0.03158466       1.47406466       1.54178157       0.35113500       0.67478100       0.24848700      -2.00640106      -1.59610903       0.33104310
C        1.15983164       1.05005492       4.64419453       0.66925900       0.32907400       0.74849900       1.74159028       0.43248026       0.08248139
4
Lattice="2.297961 0.0 0.0 -1.14898 1.990093 0.0 0.0 0.0 6.138235" Properties=species:S:1:pos:R:3:frac_pos:R:3:force:R:3 energy=-631.992278 config_type=bulk_cryst detailed_ct=dist_graphite task=SinglePoint cut_off_energy="650 eV" spin_polarized=F opt_strategy=speed xc_functional=LDA elec_energy_tol=1e-08 max_scf_cycles=200 fix_occupancy=F smearing_width="0.1 eV" mixing_scheme=Pulay calculate_stress=T finite_basis_corr=automatic popn_calculate=F pdos_calculate_weights=F write_checkpoint=none mix_charge_amp=0.15 mix_history_length=20 nextra_bands=8 kpoints_mp_grid="17 17 6" castep_file_name=10.castep castep_run_time=30.56 virial="19.73292497 4.91e-06 0.0 4.91e-06 19.73293285 0.0 0.0 0.0 0.61805369" cutoff=-1.0 nneightol=1.2 pbc="T T T"
C        0.00000000       0.00000000       1.53455875       0.00000000       0.00000000       0.25000000       0.00000000      -0.00000000       0.00000000
C        0.00000000       0.00000000       4.60367625       0.00000000       0.00000000       0.75000000       0.00000000       0.00000000       0.00000000
C       -0.00000082       1.32672933       1.53455875       0.33333300       0.66666700       0.25000000       0.00000000       0.00000000       0.00000000
C        1.14898182       0.66336367       4.60367625       0.66666700       0.33333300       0.75000000       0.00000000      -0.00000000      -0.00000000
4
Lattice="2.236061 0.0 0.0 -1.153526 1.997966 0.0 0.0 0.0 6.227097" Properties=species:S:1:pos:R:3:frac_pos:R:3:force:R:3 energy=-631.40435 config_type=bulk_cryst detailed_ct=dist_graphite task=SinglePoint cut_off_energy="650 eV" spin_polarized=F opt_strategy=speed xc_functional=LDA elec_energy_tol=1e-08 max_scf_cycles=200 fix_occupancy=F smearing_width="0.1 eV" mixing_scheme=Pulay calculate_stress=T finite_basis_corr=automatic popn_calculate=F pdos_calculate_weights=F write_checkpoint=none mix_charge_amp=0.15 mix_history_length=20 nextra_bands=8 kpoints_mp_grid="18 17 6" castep_file_name=11.castep castep_run_time=161.35 virial="28.16936929 2.4238648 -0.0 2.4238648 20.2544234 -0.0 -0.0 -0.0 0.40857049" cutoff=-1.0 nneightol=1.2 pbc="T T T"
C        0.00000000       0.00000000       1.55677425       0.00000000       0.00000000       0.25000000       0.71508205       1.13912475       0.00000000
C        0.00000000       0.00000000       4.67032275       0.00000000       0.00000000       0.75000000      -0.71508205      -1.13912475      -0.00000000
C       -0.02366480       1.33197800       1.55677425       0.33333300       0.66666700       0.25000000      -0.71544959      -1.14324475       0.00000000
C        1.10619864       0.66599000       4.67032275       0.66666700       0.33333400       0.75000000       0.71544959       1.14324475       0.00000000
4
Lattice="2.383232 0.0 0.0 -1.322169 1.954272 0.0 0.0 0.0 5.950376" Properties=species:S:1:pos:R:3:frac_pos:R:3:force:R:3 energy=-631.867638 config_type=bulk_cryst detailed_ct=dist_graphite task=SinglePoint cut_off_energy="650 eV" spin_polarized=F opt_strategy=speed xc_functional=LDA elec_energy_tol=1e-08 max_scf_cycles=200 fix_occupancy=F smearing_width="0.1 eV" mixing_scheme=Pulay calculate_stress=T finite_basis_corr=automatic popn_calculate=F pdos_calculate_weights=F write_checkpoint=none mix_charge_amp=0.15 mix_history_length=20 nextra_bands=8 kpoints_mp_grid="17 18 6" castep_file_name=12.castep castep_run_time=126.41 virial="10.35584246 7.32951602 -0.0 7.32951602 23.76142606 -0.0 -0.0 -0.0 1.14213476" cutoff=-1.0 nneightol=1.2 pbc="T T T"
C        0.00000000       0.00000000       1.48759400       0.00000000       0.00000000       0.25000000       1.68901593      -1.40125053       0.00000000
C        0.00000000       0.00000000       4.46278200       0.00000000       0.00000000       0.75000000      -1.68901593       1.40125053      -0.00000000
C       -0.08703657       1.30284865       1.48759400       0.33333300       0.66666700       0.25000000      -1.70940925       1.41752466       0.00000000
C        1.14809957       0.65142335       4.46278200       0.66666700       0.33333300       0.75000000       1.70940925      -1.41752466      -0.00000000
4
Lattice="2.31746 0.0 0.0 -1.1129 1.927601 0.0 -0.071253 -0.041138 6.070801" Properties=species:S:1:pos:R:3:frac_pos:R:3:force:R:3 energy=-631.340096 config_type=bulk_cryst detailed_ct=dist_graphite task=SinglePoint cut_off_energy="650 eV" spin_polarized=F opt_strategy=speed xc_functional=LDA elec_energy_tol=1e-08 max_scf_cycles=200 fix_occupancy=F smearing_width="0.1 eV" mixing_scheme=Pulay calculate_stress=T finite_basis_corr=automatic popn_calculate=F pdos_calculate_weights=F write_checkpoint=none mix_charge_amp=0.15 mix_history_length=20 nextra_bands=8 kpoints_mp_grid="17 18 6" castep_file_name=13.castep castep_run_time=255.7 virial="19.70918535 -1.48738705 0.0456299 -1.48738705 28.44343865 0.02511556 0.0456299 0.02511556 0.73353681" cutoff=-1.0 nneightol=1.2 pbc="T T T"
C       -0.00787965      -0.01304973       1.53065534       0.00368500      -0.00138900       0.25213400       1.19185419       0.24554835      -0.33168456
C       -0.02297828      -0.03553669       4.54842016       0.01194600      -0.00244600       0.74922900      -0.95691271       1.08782207      -0.06656443
C        0.04432561       1.29013106       1.50830872       0.35072300       0.67459600       0.24845300      -1.18569669      -0.24309957       0.31988734
C        1.13141824       0.60241111       4.54378814       0.66897700       0.32849200       0.74846600       0.95075521      -1.09027086       0.07836165
4
Lattice="2.297961 0.0 0.0 -1.1784 2.041049 0.0 0.0 0.202638 6.318523" Properties=species:S:1:pos:R:3:frac_pos:R:3:force:R:3 energy=-632.392182 config_type=bulk_cryst detailed_ct=dist_graphite task=SinglePoint cut_off_energy="650 eV" spin_polarized=F opt_strategy=speed xc_functional=LDA elec_energy_tol=1e-08 max_scf_cycles=200 fix_occupancy=F smearing_width="0.1 eV" mixing_scheme=Pulay calculate_stress=T finite_basis_corr=automatic popn_calculate=F pdos_calculate_weights=F write_checkpoint=none mix_charge_amp=0.15 mix_history_length=20 nextra_bands=8 kpoints_mp_grid="17 17 6" castep_file_name=14.castep castep_run_time=255.59 virial="18.50738473 1.8713688 -0.00053788 1.8713688 12.2883885 -0.04433111 -0.00053788 -0.04433111 0.31527119" cutoff=-1.0 nneightol=1.2 pbc="T T T"
C       -0.00055383       0.04962469       1.57963075      -0.00050100      -0.00050700       0.25000000       0.53750823       0.87304830      -0.00008474
C        0.00055383       0.15301331       4.73889225       0.00050100       0.00050700       0.75000000      -0.53750823      -0.87304830       0.00008474
C       -0.01905915       1.41239228       1.57963075       0.33383400       0.66717300       0.25000000      -0.53878625      -0.87231343      -0.00007281
C        1.13862133       0.83129267       4.73889225       0.66616600       0.33282600       0.75000000       0.53878625       0.87231343       0.00007281
4
Lattice="2.33901 0.0 0.0 -1.166988 2.021283 0.0 0.0 0.0 6.227097" Properties=species:S:1:pos:R:3:frac_pos:R:3:force:R:3 energy=-632.509172 config_type=bulk_cryst detailed_ct=dist_graphite task=SinglePoint cut_off_energy="650 eV" spin_polarized=F opt_strategy=speed xc_functional=LDA elec_energy_tol=1e-08 max_scf_cycles=200 fix_occupancy=F smearing_width="0.1 eV" mixing_scheme=Pulay calculate_stress=T finite_basis_corr=automatic popn_calculate=F pdos_calculate_weights=F write_checkpoint=none mix_charge_amp=0.15 mix_history_length=20 nextra_bands=8 kpoints_mp_grid="17 17 6" castep_file_name=16.castep castep_run_time=272.12 virial="14.39221887 0.98850525 0.0318601 0.98850525 13.63960842 0.02945095 0.0318601 0.02945095 0.46866769" cutoff=-1.0 nneightol=1.2 pbc="T T T"
C        0.00993501      -0.00276512       1.56972661       0.00356500      -0.00136800       0.25208000       1.74806960       1.38033250      -0.36271232
C        0.03046094      -0.00468331       4.66563997       0.01186700      -0.00231700       0.74924800      -1.51600330      -0.33352801      -0.07433725
C        0.03326205       1.36287028       1.54738379       0.35062500       0.67426000       0.24849200      -1.74705308      -1.38169396       0.35328370
C        1.18119482       0.66449274       4.66100701       0.66901800       0.32874800       0.74850400       1.51498679       0.33488946       0.08376587
4
Lattice="2.297961 0.0 0.0 -1.14898 1.990093 0.0 0.0 0.0 6.227097" Properties=species:S:1:pos:R:3:frac_pos:R:3:force:R:3 energy=-632.000096 config_type=bulk_cryst detailed_ct=dist_graphite task=SinglePoint cut_off_energy="650 eV" spin_polarized=F opt_strategy=speed xc_functional=LDA elec_energy_tol=1e-08 max_scf_cycles=200 fix_occupancy=F smearing_width="0.1 eV" mixing_scheme=Pulay calculate_stress=T finite_basis_corr=automatic popn_calculate=F pdos_calculate_weights=F write_checkpoint=none mix_charge_amp=0.15 mix_history_length=20 nextra_bands=8 kpoints_mp_grid="17 17 6" castep_file_name=17.castep castep_run_time=30.32 virial="19.7521582 4.98e-06 -0.0 4.98e-06 19.75216602 -0.0 -0.0 -0.0 0.43805047" cutoff=-1.0 nneightol=1.2 pbc="T T T"
C        0.00000000       0.00000000       1.55677425       0.00000000       0.00000000       0.25000000      -0.00000000      -0.00000000      -0.00000000
C        0.00000000       0.00000000       4.67032275       0.00000000       0.00000000       0.75000000       0.00000000       0.00000000       0.00000000
C       -0.00000082       1.32672933       1.55677425       0.33333300       0.66666700       0.25000000       0.00000000       0.00000000       0.00000000
C        1.14898182       0.66336367       4.67032275       0.66666700       0.33333300       0.75000000      -0.00000000      -0.00000000      -0.00000000
4
Lattice="2.226516 0.0 0.0 -1.14898 1.990093 0.0 0.0 0.067309 6.045319" Properties=species:S:1:pos:R:3:frac_pos:R:3:force:R:3 energy=-631.179162 config_type=bulk_cryst detailed_ct=dist_graphite task=SinglePoint cut_off_energy="650 eV" spin_polarized=F opt_strategy=speed xc_functional=LDA elec_energy_tol=1e-08 max_scf_cycles=200 fix_occupancy=F smearing_width="0.1 eV" mixing_scheme=Pulay calculate_stress=T finite_basis_corr=automatic popn_calculate=F pdos_calculate_weights=F write_checkpoint=none mix_charge_amp=0.15 mix_history_length=20 nextra_bands=8 kpoints_mp_grid="18 17 6" castep_file_name=18.castep castep_run_time=283.69 virial="29.78932361 2.48087386 -0.0006323 2.48087386 21.70249912 -0.02244331 -0.0006323 -0.02244331 0.78873128" cutoff=-1.0 nneightol=1.2 pbc="T T T"
C        0.00000000       0.01682725       1.51132975      -0.00000000      -0.00000000       0.25000000       0.75014409       1.19739911       0.00013518
C        0.00000000       0.05048175       4.53398925       0.00000000       0.00000000       0.75000000      -0.75014409      -1.19739911      -0.00013518
C       -0.02381579       1.34355658       1.51132975       0.33333300       0.66666700       0.25000000      -0.75135065      -1.20289115       0.00007807
C        1.10135179       0.71384542       4.53398925       0.66666700       0.33333300       0.75000000       0.75135065       1.20289115      -0.00007807
4
Lattice="2.297961 0.0 0.0 -1.118618 1.937505 0.0 0.0 0.38803 6.128931" Properties=species:S:1:pos:R:3:frac_pos:R:3:force:R:3 energy=-631.330928 config_type=bulk_cryst detailed_ct=dist_graphite task=SinglePoint cut_off_energy="650 eV" spin_polarized=F opt_strategy=speed xc_functional=LDA elec_energy_tol=1e-08 max_scf_cycles=200 fix_occupancy=F smearing_width="0.1 eV" mixing_scheme=Pulay calculate_stress=T finite_basis_corr=automatic popn_calculate=F pdos_calculate_weights=F write_checkpoint=none mix_charge_amp=0.15 mix_history_length=20 nextra_bands=8 kpoints_mp_grid="17 18 6" castep_file_name=20.castep castep_run_time=471.73 virial="21.3017762 -1.91164388 -0.0015979 -1.91164388 28.30093857 -0.10923781 -0.0015979 -0.10923781 0.63796152" cutoff=-1.0 nneightol=1.2 pbc="T T T"
C        0.00000000       0.09700750       1.53223275      -0.00000000      -0.00000000       0.25000000      -0.54964487      -1.02796506      -0.00064758
C        0.00000000       0.29102250       4.59669825      -0.00000000      -0.00000000       0.75000000       0.54964487       1.02796506       0.00064758
C        0.02024165       1.38867621       1.53223275       0.33333300       0.66666600       0.25000000       0.55352308       1.03911460      -0.00168214
C        1.15910017       0.93685685       4.59669825       0.66666600       0.33333300       0.75000000      -0.55352308      -1.03911460       0.00168214
4
Lattice="2.262988 0.0 0.0 -1.182389 1.985266 0.0 0.0 0.0 6.469885" Properties=species:S:1:pos:R:3:frac_pos:R:3:force:R:3 energy=-631.570892 config_type=bulk_cryst detailed_ct=dist_graphite task=SinglePoint cut_off_energy="650 eV" spin_polarized=F opt_strategy=speed xc_functional=LDA elec_energy_tol=1e-08 max_scf_cycles=200 fix_occupancy=F smearing_width="0.1 eV" mixing_scheme=Pulay calculate_stress=T finite_basis_corr=automatic popn_calculate=F pdos_calculate_weights=F write_checkpoint=none mix_charge_amp=0.15 mix_history_length=20 nextra_bands=8 kpoints_mp_grid="18 17 6" castep_file_name=21.castep castep_run_time=150.35 virial="24.8491157 3.47178688 -0.0 3.47178688 21.49263059 -0.0 -0.0 -0.0 0.0582443" cutoff=-1.0 nneightol=1.2 pbc="T T T"
C       -0.00077575      -0.00041492       1.61747125      -0.00045200      -0.00020900       0.25000000       1.11151891       0.59524705       0.00000000
C        0.00077575       0.00041492       4.85241375       0.00045200       0.00020900       0.75000000      -1.11151891      -0.59524705       0.00000000
C       -0.03315421       1.32392426       1.61747125       0.33378500       0.66687500       0.25000000      -1.11152351      -0.59754737       0.00000000
C        1.11375321       0.66134174       4.85241375       0.66621500       0.33312500       0.75000000       1.11152351       0.59754737      -0.00000000
4
Lattice="2.297961 0.0 0.0 -1.248921 1.928943 0.0 0.084965 0.222684 6.148569" Properties=species:S:1:pos:R:3:frac_pos:R:3:force:R:3 energy=-631.055938 config_type=bulk_cryst detailed_ct=dist_graphite task=SinglePoint cut_off_energy="650 eV" spin_polarized=F opt_strategy=speed xc_functional=LDA elec_energy_tol=1e-08 max_scf_cycles=200 fix_occupancy=F smearing_width="0.1 eV" mixing_scheme=Pulay calculate_stress=T finite_basis_corr=automatic popn_calculate=F pdos_calculate_weights=F write_checkpoint=none mix_charge_amp=0.15 mix_history_length=20 nextra_bands=8 kpoints_mp_grid="18 18 6" castep_file_name=22.castep castep_run_time=384.35 virial="21.78393106 6.35126586 -0.02293691 6.35126586 30.00522498 -0.0606749 -0.02293691 -0.0606749 0.58275406" cutoff=-1.0 nneightol=1.2 pbc="T T T"
C        0.02124125       0.05567100       1.53714225      -0.00000000       0.00000000       0.25000000       1.85937748      -1.01032962      -0.00058118
C        0.06372375       0.16701300       4.61142675      -0.00000000      -0.00000000       0.75000000      -1.85937748       1.01032962       0.00058118
C       -0.04538693       1.34163364       1.53714225       0.33333300       0.66666700       0.25000000      -1.87310682       1.01874621      -0.00057929
C        1.17939193       0.80999336       4.61142675       0.66666700       0.33333300       0.75000000       1.87310682      -1.01874621       0.00057929
4
Lattice="2.395273 0.0 0.0 -1.14898 1.990093 0.0 0.0 0.0 5.967224" Properties=species:S:1:pos:R:3:frac_pos:R:3:force:R:3 energy=-632.499931 config_type=bulk_cryst detailed_ct=dist_graphite task=SinglePoint cut_off_energy="650 eV" spin_polarized=F opt_strategy=speed xc_functional=LDA elec_energy_tol=1e-08 max_scf_cycles=200 fix_occupancy=F smearing_width="0.1 eV" mixing_scheme=Pulay calculate_stress=T finite_basis_corr=automatic popn_calculate=F pdos_calculate_weights=F write_checkpoint=none mix_charge_amp=0.15 mix_history_length=20 nextra_bands=8 kpoints_mp_grid="17 17 6" castep_file_name=23.castep castep_run_time=243.7 virial="8.23089119 -1.78565883 0.018573 -1.78565883 16.7704087 0.01091911 0.018573 0.01091911 1.10572336" cutoff=-1.0 nneightol=1.2 pbc="T T T"
C        0.00993388      -0.00276424       1.50476084       0.00348100      -0.00138900       0.25217100       1.02071364       0.33321556      -0.36941673
C        0.03045997      -0.00468269       4.47073373       0.01158800      -0.00235300       0.74921500      -0.84335889       0.74513863      -0.07446253
C        0.06402213       1.34207693       1.48241956       0.35021900       0.67437900       0.24842700      -1.01590799      -0.32892132       0.35415337
C        1.22470686       0.65409581       4.46610316       0.66896300       0.32867600       0.74843900       0.83855324      -0.74943288       0.08972589
4