9
Properties=species:S:1:pos:R:3:forces:R:3:forces_spherical:R:3 energy=-97079.92222178938 pbc="F F F"
H        0.16712676      -1.19985031       0.84958249     -32.31755689       3.56385116      -8.17404946       3.56385116      -8.17404946     -32.31755689
H       -0.93496191      -0.92263607      -0.68150202      17.86555380     -17.64771254      -2.24784356     -17.64771254      -2.24784356      17.86555380
H       -1.75179348       0.29946017       1.28426460       1.61483569       5.83196277       2.76985384       5.83196277       2.76985384       1.61483569
H       -0.20725260       1.35456114       1.05486243     -21.08364800       0.24635788       1.36623067       0.24635788       1.36623067     -21.08364800
H       -1.47331516       1.17441302      -0.27787521      -2.45072094      10.99517702       3.26953986      10.99517702       3.26953986      -2.45072094
H        1.05895494      -0.40161254      -1.43156577       3.77816578       0.48325765     -17.56186622       0.48325765     -17.56186622       3.77816578
C       -0.17406277      -0.48797864       0.01855790     -17.64730699     -26.13751651      40.70575377     -26.13751651      40.70575377     -17.64730699
C       -0.98570278       0.68695664       0.58412528      33.87945752       0.46678541      -1.51818416       0.46678541      -1.51818416      33.87945752
O        1.06846394      -0.16863939      -0.50269058      16.36121885      22.19783834     -18.60943594      22.19783834     -18.60943594      16.36121885
9
Properties=species:S:1:pos:R:3:forces:R:3:forces_spherical:R:3 energy=-97071.22355557927 pbc="F F F"
H        1.18129132       0.88525915      -0.17645318     -27.77881497     -16.05667984       0.46711033     -16.05667984       0.46711033     -27.77881497
H        0.17896233       0.92701421       1.19442387     -13.16495917     -10.48385692      -0.03142900     -10.48385692      -0.03142900     -13.16495917
H       -0.96660517       1.58609307      -1.40722389      11.92117045       7.47278810      13.53397719       7.47278810      13.53397719      11.92117045
H       -1.02901306      -0.11620693      -1.33654573      -8.90026999     -40.73003346     -36.80625241     -40.73003346     -36.80625241      -8.90026999
H       -1.95838617       0.69792764      -0.11042000      18.53106266       6.84960001     -14.44861401       6.84960001     -14.44861401      18.53106266
H        0.22355605      -1.66335171       0.81210607     -34.42047296      -2.95046269      13.92605232      -2.95046269      13.92605232     -34.42047296
C        0.22927937       0.34043263       0.22884318      40.94204877      74.15355464       1.19280790      74.15355464       1.19280790      40.94204877
C       -0.98169102       0.72626404      -0.70885262     -12.86924268     -17.58369125      52.55627419     -17.58369125      52.55627419     -12.86924268
O        0.71408976      -0.94681151       0.42485929      25.73947907      -0.67121740     -30.38992770      -0.67121740     -30.38992770      25.73947907
9
Properties=species:S:1:pos:R:3:forces:R:3:forces_spherical:R:3 energy=-97074.75547467025 pbc="F F F"
H       -0.16287301      -0.64302268      -1.31618949      -1.43689375      -4.61771760      -7.75425695      -4.61771760      -7.75425695      -1.43689375
H        1.27993147       0.23446093      -0.84324063       8.59642587      10.63587443       0.28941860      10.63587443       0.28941860       8.59642587
H       -0.15128420       1.86927971       0.33956012      12.29507880      22.78290110       9.30421044      22.78290110       9.30421044      12.29507880
H       -0.73139242       1.33792963      -1.27271822     -26.10384037      30.45452648      -8.16388816      30.45452648      -8.16388816     -26.10384037
H       -1.58192605       0.89916371       0.35305249     -10.59826256     -13.24393367      -8.12229786     -13.24393367      -8.12229786     -10.59826256
H        0.47292663      -1.91071820       0.44558433      -5.69894567      74.12888127       6.81448547      74.12888127       6.81448547      -5.69894567
C        0.28678675      -0.08054401      -0.47353047     -31.90907593     -18.33244949       5.79809335     -18.33244949       5.79809335     -31.90907593
C       -0.66671069       1.10165901      -0.21085351      38.26014490     -17.60755827     -19.03895100     -17.60755827     -19.03895100      38.26014490
O        0.34024510      -0.87922676       0.65828068      16.59536751     -84.20052544      20.87318492     -84.20052544      20.87318492      16.59536751
9
Properties=species:S:1:pos:R:3:forces:R:3:forces_spherical:R:3 energy=-97084.36308179732 pbc="F F F"
H        0.73682143       0.60933282       1.20367749       8.36040361     -10.02914909      -2.85919597     -10.02914909      -2.85919597       8.36040361
H        0.20738342      -1.18308217       1.05047296       2.04072331      36.52781214     -16.72036847      36.52781214     -16.72036847       2.04072331
H       -1.69259266       0.49096048       1.31016597      -1.78677381      -3.09176868     -12.04303253      -3.09176868     -12.04303253      -1.78677381
H       -1.30606593       1.32318797      -0.23431622      10.21852709      14.90455390      -4.54891033      14.90455390      -4.54891033      10.21852709
H       -1.70920880      -0.40667253      -0.34700013       5.45683540      21.39971437      21.38627427      21.39971437      21.38627427       5.45683540
H        1.35608725       0.56051382      -0.94232262     -10.75996823     -15.78677156       3.72114439     -15.78677156       3.72114439     -10.75996823
C        0.23183474      -0.12985821       0.52582658      -1.88103117      -8.40688661      -4.01162430      -8.40688661      -4.01162430      -1.88103117
C       -1.18366458       0.38676774       0.31135695     -27.07897897     -47.44696262       3.29555677     -47.44696262       3.29555677     -27.07897897
O        0.86614730      -0.28079091      -0.75703093      15.43026276      11.92945697      11.78015617      11.92945697      11.78015617      15.43026276
9
Properties=species:S:1:pos:R:3:forces:R:3:forces_spherical:R:3 energy=-97070.815858336 pbc="F F F"
H       -0.87935395      -0.15919401      -1.21730030      28.41396088       6.27912166      10.86716764       6.27912166      10.86716764      28.41396088
H       -0.10909584       1.41295640      -0.83407068       5.12650716     -36.19018636      28.04942052     -36.19018636      28.04942052       5.12650716
H       -0.93711596       1.02779721       1.56785159     -13.39045964     -21.24209622     -15.62669639     -21.24209622     -15.62669639     -13.39045964
H       -2.14823902      -0.25472395       0.62550138      42.79747569      39.80171345       5.61781179      39.80171345       5.61781179      42.79747569
H       -0.83256198      -0.75066756       1.49935626      29.67605631     -15.73555476       5.63992498     -15.73555476       5.63992498      29.67605631
H        1.10102760      -1.19816206      -0.86612535      -5.79819652      27.95038668      14.78449545      27.95038668      14.78449545      -5.79819652
C       -0.16215553       0.30163890      -0.42246818     -35.10908635     -12.49308720     -33.70964083     -12.49308720     -33.70964083     -35.10908635
C       -1.01965811       0.11629742       0.87294359     -43.59958639      19.65138132      -3.23317903      19.65138132      -3.23317903     -43.59958639
O        1.12685261      -0.31875228      -0.38700783      -8.11667232      -8.02167976     -12.38930414      -8.02167976     -12.38930414      -8.11667232
9
Properties=species:S:1:pos:R:3:forces:R:3:forces_spherical:R:3 energy=-97075.25487945565 pbc="F F F"
H        0.46401241       0.79285848      -1.38125642      -4.70682137     -31.07553504      32.86258040     -31.07553504      32.86258040      -4.70682137
H        0.20788686       1.53876961       0.19087164       2.23752099     -34.36532872      -2.19523224     -34.36532872      -2.19523224       2.23752099
H       -1.77791125       0.57126884      -1.11048699       6.64662657     -18.12118243      37.03804129     -18.12118243      37.03804129       6.64662657
H       -1.43206998      -1.09946349      -0.58902215       5.95031246      26.43485283      22.80294859      26.43485283      22.80294859       5.95031246
H       -1.94568196       0.23901528       0.70762861      22.58095578     -11.26973610     -11.81676958     -11.26973610     -11.81676958      22.58095578
H        1.07884093      -1.25289728       0.08899116      -4.52317920     -28.89618924     -19.43244555     -28.89618924     -19.43244555      -4.52317920
C        0.16051448       0.47118191      -0.27603520      12.76473864      23.46197338      17.80286656      23.46197338      17.80286656      12.76473864
C       -1.29449855      -0.01470279      -0.19208423     -30.47035720      11.60680455     -71.95897935      11.60680455     -71.95897935     -30.47035720
O        1.06572144      -0.39251262       0.48328917     -10.47979548      62.22433959      -5.10301012      62.22433959      -5.10301012     -10.47979548
9
Properties=species:S:1:pos:R:3:forces:R:3:forces_spherical:R:3 energy=-97077.54987115158 pbc="F F F"
H        0.25646646      -0.70603082       1.24814148      25.60533306      -9.73018345      25.67883500      -9.73018345      25.67883500      25.60533306
H       -0.74156522      -1.30415920       0.04132189       1.95979340     -14.40665966     -19.59853758     -14.40665966     -19.59853758       1.95979340
H       -1.84240457       0.32768948       1.12246832      28.89598528      16.68957507       7.74331182      16.68957507       7.74331182      28.89598528
H       -0.47651709       1.63510579       0.74587179       0.02193532       2.59738210      15.17004501       2.59738210      15.17004501       0.02193532
H       -1.64336372       0.94310841      -0.38378703      15.36931156       0.63752467     -12.26644833       0.63752467     -12.26644833      15.36931156
H        0.96245446       0.67635883      -0.73651157      12.54438700      27.98224257     -13.15033207      27.98224257     -13.15033207      12.54438700
C       -0.07542610      -0.45712149       0.25290407       8.30320909     -18.45698323      -5.67021915     -18.45698323      -5.67021915       8.30320909
C       -0.96684674       0.68763743       0.47179200     -70.00232600      16.28405747     -12.20940204      16.28405747     -12.20940204     -70.00232600
O        1.00191441      -0.27218050      -0.67238707     -22.69762989     -21.59695673      14.30274735     -21.59695673      14.30274735     -22.69762989
9
Properties=species:S:1:pos:R:3:forces:R:3:forces_spherical:R:3 energy=-97078.04455198166 pbc="F F F"
H       -1.16740370      -0.04642054      -1.04643286      -8.99547600       0.13085535      19.29144313       0.13085535      19.29144313      -8.99547600
H       -0.41837058       1.37343273      -0.37195045       5.67419403      49.38694569      -6.00798605      49.38694569      -6.00798605       5.67419403
H       -1.21933400       0.63701467       1.72605327     -15.45330919       5.75982928       2.87158187       5.75982928       2.87158187     -15.45330919
H       -0.76561308      -1.04364447       1.48839180       9.01921258     -18.32863589       3.43779957     -18.32863589       3.43779957       9.01921258
H        0.40770982       0.37763062       1.55269789      58.46279072       4.38836320      31.40264140       4.38836320      31.40264140      58.46279072
H        1.52310139      -0.22711024      -0.23440265     -14.59951093       2.70320596     -10.30770439       2.70320596     -10.30770439     -14.59951093
C       -0.40725086       0.31780532      -0.30939538      17.92824816     -69.51074982       5.61401954     -69.51074982       5.61401954      17.92824816
C       -0.49867449      -0.02438477       1.23740941     -53.23929407      15.10499323     -65.01094671      15.10499323     -65.01094671     -53.23929407
O        0.78332510      -0.28782980      -0.89285742       1.20314589      10.36519418      18.70915282      10.36519418      18.70915282       1.20314589
9
Properties=species:S:1:pos:R:3:forces:R:3:forces_spherical:R:3 energy=-97068.76923871019 pbc="F F F"
H       -1.08428403      -0.69356513      -0.54554745     -35.84246924     -28.52148284     -12.25667835     -28.52148284     -12.25667835     -35.84246924
H       -0.78964876       1.07738077      -0.63811546       2.03015765     -26.99576872       3.33587113     -26.99576872       3.33587113       2.03015765
H       -1.42217706       0.37218923       1.59026260     -39.42232661      21.93832140      -8.96127455      21.93832140      -8.96127455     -39.42232661
H       -0.31052444      -0.61642474       1.86346364      23.68306023     -33.82227367      -4.37137513     -33.82227367      -4.37137513      23.68306023
H        0.14669883       0.96785183       1.68382130      16.75505136      22.94134576      -6.35204728      22.94134576      -6.35204728      16.75505136
H        1.53006956       0.12554468      -0.63059957      55.03825930      39.56207918      31.67222359      39.56207918      31.67222359      55.03825930
C       -0.39506549       0.04273486      -0.23225657      -7.50863428      74.58948736     -66.90158421      74.58948736     -66.90158421      -7.50863428
C       -0.44644767       0.21672187       1.17279286       8.75550258     -12.83622942     100.09240462     -12.83622942     100.09240462       8.75550258
O        0.75323788      -0.27254369      -0.91542002     -23.48860099     -56.85548025     -36.25753981     -56.85548025     -36.25753981     -23.48860099
9
Properties=species:S:1:pos:R:3:forces:R:3:forces_spherical:R:3 energy=-97068.67854993218 pbc="F F F"
H        0.26198382       1.46392721      -0.13934628     -10.62385969      52.16331444     -10.52002683      52.16331444     -10.52002683     -10.62385969
H        1.01269733       0.46978893       1.13741496      -2.64742375      -0.74165636      -8.18038768      -0.74165636      -8.18038768      -2.64742375
H       -1.73269756       0.88549675       1.13283804      16.80834097     -54.75256537     -26.02396228     -54.75256537     -26.02396228      16.80834097
H       -1.63732582      -0.53755268      -0.24255852       4.83013491      11.71483640      21.41432368      11.71483640      21.41432368       4.83013491
H       -1.20171090      -0.82079587       1.52365035      11.30521112     -15.43739310       7.93243368     -15.43739310       7.93243368      11.30521112
H        0.26375071       0.03176322      -1.59627581      30.72177853     -27.09146092      26.50954533     -27.09146092      26.50954533      30.72177853
C        0.29654172       0.50469098       0.28007993     -12.93025673    -117.01502554      -3.30759642    -117.01502554      -3.30759642     -12.93025673
C       -1.14907517      -0.11796465       0.69799166      -0.72502878      99.01247146     -11.41786768      99.01247146     -11.41786768      -0.72502878
O        0.83102575      -0.38444223      -0.84862332     -36.73889659      52.14748017       3.59353700      52.14748017       3.59353700     -36.73889659
9
Properties=species:S:1:pos:R:3:forces:R:3:forces_spherical:R:3 energy=-97078.17029374573 pbc="F F F"
H        1.18544420       0.47993553      -0.77193565      26.32610474       8.53033295     -34.43413836       8.53033295     -34.43413836      26.32610474
H        0.21616322       1.49827007       0.28010052      -0.14847665      10.74455849       7.33502534      10.74455849       7.33502534      -0.14847665
H       -1.54437825       0.79530867      -1.46921135      11.80998075      -1.90075256      -6.43632003      -1.90075256      -6.43632003      11.80998075
H       -0.93680511      -0.97794427      -1.18058585      12.03003238      14.28507862     -21.83406520      14.28507862     -21.83406520      12.03003238
H       -1.69286157      -0.21725281       0.02235908      16.63923459      25.78946380     -15.11747044      25.78946380     -15.11747044      16.63923459
H        0.85485769      -0.10103213       1.66994979       0.66336608       3.38463921       1.34307278       3.38463921       1.34307278       0.66336608
C        0.31831760       0.49814431      -0.15661292     -16.38137543     -28.98751999      31.33530100     -28.98751999      31.33530100     -16.38137543
C       -0.96531029       0.09022651      -0.83965906     -43.30806770     -41.79295957      43.71906023     -41.79295957      43.71906023     -43.30806770
O        0.60643796      -0.53484957       0.83920365      -7.63079757       9.94715905      -5.91046294       9.94715905      -5.91046294      -7.63079757
9
Properties=species:S:1:pos:R:3:forces:R:3:forces_spherical:R:3 energy=-97071.45070177181 pbc="F F F"
H        0.58942011       0.56850416       1.45765342      -3.89557274      30.05037258     -11.16423360      30.05037258     -11.16423360      -3.89557274
H        0.19084583      -0.97177401       1.11895344     -16.43366184       5.81050890      -7.43955665       5.81050890      -7.43955665     -16.43366184
H       -1.91754606      -0.63864157       0.32633664      -9.04080757      15.70066909      -2.19264122      15.70066909      -2.19264122      -9.04080757
H       -1.74687615       1.20677948       0.04724915     -21.13922862      32.74309944      10.01874588      32.74309944      10.01874588     -21.13922862
H       -0.99806795       0.04567495      -1.06048419     -16.49224614       0.19569605      -3.95574011       0.19569605      -3.95574011     -16.49224614
H        1.44465926       0.56652412      -0.77008481      10.74797602      24.70044370      -9.12221063      24.70044370      -9.12221063      10.74797602
C        0.14530500       0.03149213       0.59344123      -7.84668696     -58.22913772      -4.54644382     -58.22913772      -4.54644382      -7.84668696
C       -1.32273297       0.23833993      -0.01808530      63.51521370     -45.94284112       9.82104106     -45.94284112       9.82104106      63.51521370
O        1.03739242      -0.25161075      -0.50245265       0.58501296      -5.02881211      18.58103790      -5.02881211      18.58103790       0.58501296
9
Properties=species:S:1:pos:R:3:forces:R:3:forces_spherical:R:3 energy=-97076.24960299351 pbc="F F F"
H       -1.43890599      -0.04261626       0.04499329      -2.71325935     -15.77193931     -12.86596981     -15.77193931     -12.86596981      -2.71325935
H       -0.27171802      -0.73808196      -1.24139944     -13.73266032      15.38494542      -9.54886785      15.38494542      -9.54886785     -13.73266032
H       -0.74988007       1.96914652      -0.40386762      -6.55720737      10.33089430      -8.10291443      10.33089430      -8.10291443      -6.55720737
H        0.84527570       1.63080645       0.40630284     -32.11911448     -20.36564759     -12.32253174     -20.36564759     -12.32253174     -32.11911448
H        0.72931487       1.31501129      -1.24821332       8.56639140      15.68522614     -32.47781586      15.68522614     -32.47781586       8.56639140
H       -0.25795770      -1.04518567       1.39416107      11.71663410      -0.69162657      -2.77395441      -0.69162657      -2.77395441      11.71663410
C       -0.37672150      -0.16038447      -0.29537191     -26.02847789     -20.45359993      12.90848387     -20.45359993      12.90848387     -26.02847789
C        0.07656428       1.25944447      -0.39901712      55.58737152      21.84298258      34.14924960      21.84298258      34.14924960      55.58737152
O        0.29732708      -1.01976322       0.58729970       5.28032119      -5.96123505      31.03432183      -5.96123505      31.03432183       5.28032119
9
Properties=species:S:1:pos:R:3:forces:R:3:forces_spherical:R:3 energy=-97079.28766160006 pbc="F F F"
H       -0.48917455      -1.31430462      -0.63255767      -8.73101656     -26.28208113      -8.01669931     -26.28208113      -8.01669931      -8.73101656
H       -0.79148257       0.47502047      -1.23857661      15.03116283     -45.27699430      18.36558252     -45.27699430      18.36558252      15.03116283
H       -1.98997385       0.15442517       1.07170767      -2.81298334      -4.39210803     -16.93141260      -4.39210803     -16.93141260      -2.81298334
H       -0.46969859      -0.22659287       1.73313304      13.19479324     -10.28533506      13.78319883     -10.28533506      13.78319883      13.19479324
H       -0.69232569       1.32907273       0.98433240       2.97084221       5.55496565      -4.82301049       5.55496565      -4.82301049       2.97084221
H        1.41693759       0.47579588       0.31310839     -15.69818243      -7.92745560      -9.39787489      -7.92745560      -9.39787489     -15.69818243
C       -0.27858835      -0.28003755      -0.43222729     -41.77702688      95.59616609     -12.28200986      95.59616609     -12.28200986     -41.77702688
C       -0.90491612       0.25323355       0.85648637      -5.61193131      -3.70849879      16.53050310      -3.70849879      16.53050310      -5.61193131
O        1.07837685      -0.03625684      -0.45904916      43.43434223      -3.27865882       2.77172388      -3.27865882       2.77172388      43.43434223
9
Properties=species:S:1:pos:R:3:forces:R:3:forces_spherical:R:3 energy=-97078.72957415297 pbc="F F F"
H       -0.57660767      -1.28615216      -0.67026655       4.78262499      21.46830937      -0.87076262      21.46830937      -0.87076262       4.78262499
H       -0.75700260       0.52706622      -1.19368888      13.04329037     -26.74578578      13.95400331     -26.74578578      13.95400331      13.04329037
H       -2.05342424       0.33616306       0.81875616      17.18355135     -10.16093057      -8.78765849     -10.16093057      -8.78765849      17.18355135
H       -0.80510263      -0.44272026       1.68974471      21.35614493     -36.11023119      52.29691378     -36.11023119      52.29691378      21.35614493
H       -0.61162320       1.22955160       1.03502202      12.60616353      10.89573526      19.16950160      10.89573526      19.16950160      12.60616353
H        1.21938944       0.41082614      -1.21379506      22.81022597      13.80216841     -24.41076066      13.80216841     -24.41076066      22.81022597
C       -0.29376757      -0.20132971      -0.40779038     -15.25754081     -11.07063912     -28.54150187     -11.07063912     -28.54150187     -15.25754081
C       -0.92128671       0.19647111       0.88363364     -51.98508079      47.82912547     -38.70215259      47.82912547     -38.70215259     -51.98508079
O        1.13788557      -0.04525437      -0.38655708     -24.53937837      -9.90775185      15.89241754      -9.90775185      15.89241754     -24.53937837
9
Properties=species:S:1:pos:R:3:forces:R:3:forces_spherical:R:3 energy=-97076.53856544431 pbc="F F F"
H       -1.45666131       0.27539563      -0.23977018     -34.56167341       0.42511566       0.75660007       0.42511566       0.75660007     -34.56167341
H       -0.18851714      -0.13814463      -1.42816244      -5.29216873       8.21223646     -16.70000674       8.21223646     -16.70000674      -5.29216873
H        1.37903252       0.85525728      -0.02389291      56.38207914       1.86049749      -8.59929438       1.86049749      -8.59929438      56.38207914
H        0.14404508       2.16390268      -0.55387475      18.45146324     -31.44299845      11.26652608     -31.44299845      11.26652608      18.45146324
H        0.29274240       1.62288314       1.07114096     -12.09722930      -6.20990884      29.89829815      -6.20990884      29.89829815     -12.09722930
H        0.31242072      -1.01058649       1.09121061      11.26528334       8.84704560      39.49081726       8.84704560      39.49081726      11.26528334
C       -0.40961095       0.09678593      -0.38593292       5.72054540     -75.81393772      18.15479571     -75.81393772      18.15479571       5.72054540
C        0.39610325       1.21004824       0.07991633     -17.47382612      69.85146229     -29.36804878      69.85146229     -29.36804878     -17.47382612
O       -0.02035437      -1.21855422       0.23497656     -22.39447474      24.27048633     -44.89968620      24.27048633     -44.89968620     -22.39447474
9
Properties=species:S:1:pos:R:3:forces:R:3:forces_spherical:R:3 energy=-97072.95712505389 pbc="F F F"
H       -1.40103179      -0.13505771      -0.41215083     -68.61142432     -10.56829212      18.35096016     -10.56829212      18.35096016     -68.61142432
H       -0.27410342      -0.61390244      -1.43780747      32.76422603     -23.94233644     -42.11568195     -23.94233644     -42.11568195      32.76422603
H       -0.38000352       1.89837227      -1.01944435      -1.76103319     -10.88040022      11.25681421     -10.88040022      11.25681421      -1.76103319
H        0.02660654       1.71996742       0.73190865       2.44271309     -24.80687706     -14.87542539     -24.80687706     -14.87542539       2.44271309
H        1.11514611       1.17495290      -0.68345936      30.29234530      10.73378412      10.45176860      10.73378412      10.45176860      30.29234530
H        0.25925904      -1.81175512       0.55349340      -1.73641080     -18.96690051      -2.45376257     -18.96690051      -2.45376257      -1.73641080
C       -0.36176115      -0.23418256      -0.45732575      18.49453818      46.23479144      80.61951190      46.23479144      80.61951190      18.49453818
C        0.11360337       1.19645302      -0.27366449      -7.85421574      35.06937676     -43.07027264      35.06937676     -43.07027264      -7.85421574
O        0.22743806      -0.86311724       0.69159894      -4.03073736      -2.87314597     -18.16391230      -2.87314597     -18.16391230      -4.03073736
9
Properties=species:S:1:pos:R:3:forces:R:3:forces_spherical:R:3 energy=-97068.123235024 pbc="F F F"
H        0.12549744      -0.81275685       1.31667603       5.60473574      -2.52768191      -1.14204409      -2.52768191      -1.14204409       5.60473574
H       -0.43211239      -1.28015574      -0.37668004     -14.30119274     -15.50111557      15.64302752     -15.50111557      15.64302752     -14.30119274
H       -1.95687532      -0.12698744       0.68508167       5.81688862      36.67666470       0.06170776      36.67666470       0.06170776       5.81688862
H       -1.00999307       1.56854261       0.69893193       4.73278848     -20.00735294       2.79996066     -20.00735294       2.79996066       4.73278848
H       -1.39264738       0.59538697      -0.77898325      -8.61552945      18.47447646     -21.38523787      18.47447646     -21.38523787      -8.61552945
H        1.89682687      -0.56092387      -0.39668988     -10.02648100      -9.68452697      11.20597924      -9.68452697      11.20597924     -10.02648100
C       -0.11985849      -0.45706087       0.29021524     130.15873361     -56.02344417     -29.47125672     -56.02344417     -29.47125672     130.15873361
C       -1.10381447       0.53410500       0.26175056     -96.29663058      27.40833246       7.94572436      27.40833246       7.94572436     -96.29663058
O        1.09300749      -0.01906781      -0.48670261     -17.07331269      21.18464794      14.34213914      21.18464794      14.34213914     -17.07331269
9
Properties=species:S:1:pos:R:3:forces:R:3:forces_spherical:R:3 energy=-97076.80985294681 pbc="F F F"
H       -0.55100876       0.46864764       1.32674224      12.90859178       1.71939427      16.80342812       1.71939427      16.80342812      12.90859178
H       -1.48063994      -0.09782450       0.03319797      -2.04554131     -12.02435941       1.69668580     -12.02435941       1.69668580      -2.04554131
H        1.00153521       0.78096860      -0.87854841      52.88033655     -12.50377144     -28.96248375     -12.50377144     -28.96248375      52.88033655
H       -0.58962627       1.22183329      -1.59806415      10.88151015      -1.16101248      13.09387750      -1.16101248      13.09387750      10.88151015
H        0.26847246       2.13686265      -0.26591360     -10.24976398      10.31098792       8.31514912      10.31098792       8.31514912     -10.24976398
H        0.52794569      -1.48228927      -0.44396493       5.16141892     -17.08134425     -61.13177151     -17.08134425     -61.13177151       5.16141892
C       -0.40748035       0.06664690       0.32158298     -56.68168750      17.47398976     -18.53285681      17.47398976     -18.53285681     -56.68168750
C        0.04143735       1.14246359      -0.66572518     -20.85427582       3.79140310      -2.92330502       3.79140310      -2.92330502     -20.85427582
O        0.32659315      -1.09854230       0.37341665       7.99941360       9.47471372      71.64127655       9.47471372      71.64127655       7.99941360
9
Properties=species:S:1:pos:R:3:forces:R:3:forces_spherical:R:3 energy=-97075.59018707108 pbc="F F F"
H       -1.29843020       0.09349653      -0.88897398      23.79519977      -0.43112066       5.43371900      -0.43112066       5.43371900      23.79519977
H       -0.20631646       1.42827155      -0.37998227      -6.44046447       8.28189277       8.70227819       8.28189277       8.70227819      -6.44046447
H       -1.28088277       0.61956854       1.67600591     -46.38939523      28.80866379      26.69910119      28.80866379      26.69910119     -46.38939523
H       -0.67936275      -1.18203097       1.55888120      -7.78432345      40.00110333     -16.80421550      40.00110333     -16.80421550      -7.78432345
H        0.42137582       0.27026338       1.64237221     -12.02347242      -5.61875808      12.67880337      -5.61875808      12.67880337     -12.02347242
H        1.50165855      -0.25831732      -0.31734824      39.56440220       2.74923479      36.75211612       2.74923479      36.75211612      39.56440220
C       -0.35239584       0.33550455      -0.29272150      -9.37902152     -30.66622163       4.63127034     -30.66622163       4.63127034      -9.37902152
C       -0.59609608      -0.05046819       1.27183283      92.09247282     -42.68831849     -59.84813801     -42.68831849     -59.84813801      92.09247282