32
Lattice="8.1 0.0 0.0 0.0 8.1 0.0 0.0 0.0 8.1" Properties=species:S:1:pos:R:3:momenta:R:3:delta_positions:R:3:delta_momenta:R:3:energies:R:1:forces:R:3 energy=1.2343264064429738 free_energy=1.2343264064429738 stress="0.004629234615343502 -0.0001192584996107531 -0.0002127556260509674 -0.0001192584996107531 0.006305226906841417 0.0008192588414825782 -0.0002127556260509674 0.0008192588414825782 0.0050504898633108785" pbc="T T T"
Al       0.01933706      -0.00785908      -0.00934144      -0.91798326       0.94933025      -0.09533191      -0.10886186       0.11018289      -0.01522539      -0.50245573       0.06629913       0.76280855       0.03867839      -0.32244620       0.13013266       0.12466699
Al      -0.02578338       2.18219793       1.90366546      -0.63397491      -1.07745960       1.58877362      -0.08265203      -0.12462182       0.19545308       0.58208191      -1.61517325       0.20507798       0.05541745      -0.06670043      -0.62026249       0.45491733
Al       1.89295775       0.03352128       1.99751327      -0.27463681      -0.42566689       1.28595852      -0.03006375      -0.04935485       0.15489297       0.82076963      -0.74425482       0.06507023       0.02025795       0.28354122      -0.27304230       0.29436949
Al       2.18502444       1.94072189      -0.07100903      -0.98560519      -0.77277959      -0.66613865      -0.11560621      -0.09389734      -0.08139254      -1.07720880       0.60273792       0.53800154       0.03770564      -0.47406790       0.01053712       0.01872395
Al       0.12882706      -0.15521691       4.16932250       0.32191485      -1.22152750      -0.04596613       0.03645438      -0.14649139      -0.01145318      -0.97688711       0.37306340      -1.24760056       0.03943489      -0.26802223      -0.09216677      -0.47530771
Al       0.12726540       2.09191423       6.06032040      -0.06271952       0.19437867       0.58922663      -0.01191169       0.02232970       0.08137766      -1.01457365      -0.46899907       0.00474931       0.02126416      -0.42045883      -0.16877758       0.29202700
Al       1.91154105      -0.05769565       6.12340653      -0.11399804      -0.44368034       0.33775040      -0.00280217      -0.04729981       0.03768988       1.36465476       0.13552089       0.44914490       0.05562801       0.55168504       0.07280158       0.11804033
Al       1.96633075       2.03397762       3.93781961       0.50661608      -0.36742535       0.90449192       0.06308473      -0.03749214       0.09540711      -0.03848549      -0.15705424       0.32860726       0.00022722       0.12420373      -0.01490293       0.06010725
Al       0.13357716       4.03483562      -0.00446009      -1.01139634      -1.18724107      -0.81517134      -0.12365929      -0.13790693      -0.11142985      -1.51086640       0.31848843      -0.92189941       0.11791384      -0.63562727       0.00102307      -0.62570605
Al      -0.03785255       5.91182687       1.99995753       0.29930375       0.87180810      -1.06441419       0.03133839       0.11061681      -0.11704418      -0.48427880       2.20386441      -0.16308187       0.06608182      -0.14180709       0.88566161      -0.06040021
Al       1.96750331       4.16676955       1.89292429       0.06776681      -0.86342588      -0.70004534       0.01524782      -0.09906637      -0.06637185       1.44347046      -1.44748136       1.24312059       0.10574372       0.50907866      -0.50081112       0.51497187
Al       2.19277679       5.96254504      -0.12971236      -0.47631263      -0.33176088      -0.19533858      -0.05041672      -0.04623800      -0.03147263      -1.26991763       2.93303965       1.87857397       0.06856374      -0.33845642       0.62742029       0.39068324
Al       0.04539340       4.02456499       3.98090329       1.30125645      -0.48067776      -0.82504603       0.14362948      -0.06241027      -0.09706932       0.00065287       0.44072194       1.40755223       0.02880814       0.00529141      -0.02332387       0.26476835
Al      -0.01597910       6.07966862       6.19442616      -0.32848520      -0.34100848      -0.08089611      -0.04206738      -0.04442671      -0.01466245      -0.07581862      -0.94827379      -0.63244553       0.02271817      -0.11388297      -0.38248677      -0.29989472
Al       1.98584120       4.07893313       6.16843690       0.89630505       1.18224546       0.36673529       0.10706131       0.14879615       0.05052564       0.25064013      -1.33729962      -1.61903280       0.05289147       0.25505254      -0.00336891      -0.27626053
Al       2.07065295       5.92640532       4.07542842       0.59808548       0.19154103       0.12629734       0.07004229       0.02143238       0.01963233      -1.49668370       1.63558003       0.05516446       0.03779330      -0.31677022       0.48581026       0.12611563
Al       4.13499425       0.08202417      -0.02096779      -0.63802230      -0.32860317       0.20369684      -0.07083648      -0.03658291       0.02020517      -0.65012165      -0.92817997       0.49385143       0.02477058      -0.21146263      -0.29412983       0.10348115
Al       4.08984406       2.06308595       2.04588173      -1.23077407      -1.16500170      -0.60101820      -0.14169484      -0.14452994      -0.06230753      -0.30836197      -0.50063923       0.46023411       0.03485128      -0.23784558      -0.51404114       0.21232532
Al       6.05542260      -0.01887742       2.05006065      -1.10236031       1.10762707       0.66966101      -0.12321218       0.13258768       0.07916552       0.52972718      -0.69777888      -0.77420806       0.01470188       0.10490478       0.01081636      -0.11842540
Al       6.11943180       2.22905381      -0.03323069       0.33470018       0.54442003      -0.08341408       0.04600712       0.06455160      -0.01539814      -0.43601816      -0.44836469       0.14323536       0.00229641       0.02170499      -0.08614499      -0.05653232
Al       3.90419987      -0.02720598       4.32226666      -0.48015860       0.57677610       0.60022771      -0.06251154       0.07288801       0.07806771       0.53774710       0.13985706      -2.01516675       0.03171583      -0.01745396       0.25294632      -0.41822719
Al       4.07667850       2.05651114       5.97091623       0.55475639      -1.16200122       0.89932636       0.06047761      -0.15064300       0.10378410      -0.11268913       0.50867415       0.58838141       0.02951395      -0.06170166      -0.31918020       0.31370503
Al       6.05874838       0.03601583       6.26087704      -0.21988100       0.61977994       0.65708730      -0.02825155       0.07237330       0.08112984       0.80904331       0.27281586      -1.29982529       0.02591617       0.16211868       0.15379903      -0.22134167
Al       6.25118870       1.84084279       3.93934636       0.57586146       0.07893649       0.07356816       0.07173870       0.00722061      -0.00663471      -0.86194859       0.61730310       1.71831835       0.01317659      -0.12442457       0.16553965       0.27265312
Al       3.98026504       4.02463142       0.07376666       0.57540800       0.62831448      -1.88154527       0.06575255       0.08300905      -0.22232474       1.56659782      -0.59870715      -0.34423412       0.07605058       0.49889696       0.16114536      -0.45019565
Al       4.00379279       6.14650122       2.10683033       0.22991003      -0.20645671      -0.60963376       0.02540875      -0.02222775      -0.07296709       0.35753905       0.12538935      -0.46555521       0.00465319       0.10631238       0.02731340      -0.26120433
Al       6.03542824       4.08945713       2.24478683       0.49310060      -0.36163647       0.23574677       0.06165386      -0.04228508       0.02866358      -0.89417920       0.28985421      -0.79809738       0.02807211      -0.06591750       0.04015995      -0.19115527
Al       5.99617775       5.91730875      -0.10418307      -0.21726656       1.09847162      -0.20324060      -0.02777872       0.12357077      -0.02765164       0.26451924       0.25360362       1.42744865      -0.00707926       0.00982143       0.16018509       0.31792782
Al       3.82616862       4.02515579       4.07617191      -0.85191833      -0.30181211      -0.50136778      -0.10882860      -0.02920437      -0.06697933       1.82058303      -0.60453911      -0.60565618       0.07049050       0.25676854      -0.06301176      -0.43700067
Al       4.00988671       5.97346704       6.08348887       0.46047537       1.90719492      -0.31025741       0.04855657       0.22031454      -0.03234126       0.59387199       0.52936824      -0.09920097       0.06628709       0.12166194       0.36257061       0.03139635
Al       6.05515238       4.04776788       5.91432269       0.89221865       1.02861667       0.05696289       0.11125648       0.12280591       0.01282532       0.36058640      -0.70672686       0.05913701       0.02717366       0.37464117      -0.01330213       0.16812607
Al       6.00397474       6.20018836       4.21360872       1.43781389       0.05872388       0.08331459       0.17344495       0.00199927       0.01390590       0.40800975      -0.24270934      -0.84247320       0.02260790       0.43136202      -0.17890956      -0.18735457
32
Lattice="8.1 0.0 0.0 0.0 8.1 0.0 0.0 0.0 8.1" Properties=species:S:1:pos:R:3:momenta:R:3:delta_positions:R:3:delta_momenta:R:3:energies:R:1:forces:R:3 energy=1.4550326712137647 free_energy=1.4550326712137647 stress="0.005093540522942959 -0.0007838500850879061 -0.0008697750497357649 -0.0007838500850879061 0.0033440419406039804 0.0007196133531042952 -0.0008697750497357649 0.0007196133531042952 0.00493004190093198" pbc="T T T"
Al       0.22631537      -0.16038774      -0.04940808      -0.21938354      -0.22713574      -0.30264570      -0.02340414      -0.02973665      -0.03359090      -1.47652850       1.01181354      -0.70647313       0.02382144      -0.45774920       0.23295146      -0.19351038
Al       0.06837326       2.12506379       1.86081882      -0.38976540      -1.19992566      -1.16699423      -0.04690873      -0.14390379      -0.13424227      -0.68876030      -0.43222329       0.76162024       0.02484350      -0.23967391      -0.40103408       0.12364359
Al       1.98702536       0.08969644       1.99438711       0.18839675      -0.56559537       0.19033945       0.02647693      -0.06544905       0.02451795       0.65669438      -0.43166011       0.46636794       0.02291449       0.28543965      -0.21180559       0.19546688
Al       2.17908190       2.07519168      -0.01774609       0.54668670      -0.82058246      -0.11944126       0.06283113      -0.09627813      -0.01478532      -1.56295439      -1.09004510      -0.50632316       0.03962319      -0.39372474      -0.39968706      -0.14805266
Al       0.08866298       0.11334118       4.10790473       0.67235484       0.43235655      -0.18670897       0.08319352       0.06084090      -0.01513321      -0.92319329      -0.11393038      -0.42310594       0.01165631      -0.12319450       0.16196880      -0.05071634
Al       0.00248178       2.06735879       6.10360652       1.29038856      -2.00174731      -0.28926192       0.16424999      -0.23925006      -0.04388600       0.18888993      -1.82441779       0.40224223       0.11293985       0.45348114      -0.85923863      -0.11654243
Al       2.06833904       0.02622386       6.02020113       0.30813174       1.04546250       0.21919037       0.02789351       0.12603990       0.02496437       0.00887714       0.58968124       0.94987834       0.02977416      -0.06191053       0.34326445       0.27429379
Al       2.07341294       2.09527772       3.91848929      -1.59691399      -0.20584160       0.19167495      -0.19510649      -0.03469737       0.03273131      -0.77810840      -1.01164895       1.02733941       0.06714920      -0.58226967      -0.50112070       0.50779626
Al       0.13825770       4.11811252      -0.01920736       0.37907047       0.36079905      -0.46938219       0.04290331       0.04869004      -0.04903572      -0.62832883       0.18093710       0.52192728       0.04071060      -0.17303866       0.20091280       0.18711832
Al       0.11228802       6.10902584       2.13766087      -0.65370177       0.29894882      -1.38119856      -0.08654397       0.04016524      -0.16614749      -0.92829017      -0.35577936       0.20914726       0.04917066      -0.56000490       0.04194581      -0.20781868
Al       1.92821705       4.18948238       2.23569325       0.67675932      -0.44337574      -0.50202477       0.08106689      -0.05424862      -0.06003510       0.85045761      -0.29109279      -1.24383309       0.07716364       0.41916436      -0.25000164      -0.48756685
Al       2.08210622       6.03912686      -0.02736888       0.02477572       1.06870001       0.67791108      -0.00397354       0.12967555       0.08083760      -0.87138594      -0.42213289       0.88755434       0.06412167      -0.35941931       0.17664549       0.38842811
Al      -0.19309888       3.90830550       4.25304429      -0.27047524      -0.15625809      -0.06986526      -0.02214465      -0.01257397      -0.00880437       0.25847189       0.72942884      -2.61917297       0.07729912       0.22873744       0.29483360      -0.75213489
Al      -0.06481730       6.03475073       5.90310972      -0.61393493      -0.08713856       0.25953261      -0.07244994      -0.01024694       0.02599094       0.22209562       0.88423112       1.63076133       0.02169110      -0.02000582       0.22211635       0.43667027
Al       1.83344941       3.99875322       6.03352987      -0.47894019      -1.05982405      -1.00941948      -0.06399211      -0.13002525      -0.12269871       1.86328728       0.19666098      -0.01765390       0.05821708       0.31958736      -0.22904952      -0.23970277
Al       1.99833831       6.13580296       4.15119686      -0.99116115       0.07077282       0.47879108      -0.11738035       0.01152711       0.05536632       0.23107824      -0.63361824      -0.55886475       0.08076094      -0.10571918      -0.08872397      -0.10065252
Al       4.03342511      -0.12253647       0.00893657       0.30106831       1.07092946       0.11781945       0.02913682       0.12421875       0.01586147       0.40487574       1.57786574      -0.46436985       0.02770525       0.05656281       0.56633968      -0.06699349
Al       4.05086998       2.13436133       1.96721131       0.41347517      -1.83517726       0.27226814       0.04568683      -0.21722730       0.02775216       0.83786402      -1.19368531       0.62665741       0.08012534       0.22187804      -0.66244861       0.13178235
Al       6.26729963      -0.09042567       1.95762855      -0.22048029       0.03810813      -0.26137221      -0.02554798       0.00159522      -0.03485951      -0.68187627       0.89226842       0.52817245       0.02059351      -0.26023680       0.22280187       0.04891069
Al       6.19576681       1.95131189      -0.16707660       0.35292639       0.50440543       1.02932672       0.03668996       0.05050728       0.13270451      -0.94012511      -0.39944053       2.03914533       0.07974355      -0.34260189      -0.18432758       0.96737522
Al       3.94912633      -0.07479294       4.10044202      -0.65230374       0.81057709      -0.46136078      -0.07236230       0.09546382      -0.06090630       1.18798111       0.62933709      -0.69404387       0.04506332       0.32662098       0.32591406      -0.39491108
Al       4.13385714       2.05815812       5.99367418       0.44898853       0.85035286      -0.89591808       0.05618559       0.10811992      -0.10759015      -0.84303076      -0.70105626       0.73294660       0.00693855      -0.15201772       0.05009199       0.05651345
Al       5.96302887      -0.09348734       6.08785107       0.37807059       0.55777026       0.32455236       0.04737160       0.06120476       0.03312485       0.73485330      -0.27688446      -0.25562972       0.02295451       0.34798161      -0.05506153      -0.11415526
Al       6.05709124       1.95219470       3.94835286       0.07707380      -0.59626359       1.02734970       0.00112152      -0.06850268       0.12420600      -0.31591355       0.02465970       0.09951580       0.01991791      -0.21643183      -0.05321568       0.28472004
Al       3.93330139       3.97461455       0.03387842       0.22112065      -0.87028694      -0.47022271       0.03128543      -0.09498851      -0.06486514       0.67513457       1.31797535       0.20065695       0.07661928       0.33157602       0.33517784      -0.16845102
Al       4.07370538       6.22288758       2.01251523       0.33199013       1.07044006       0.29619787       0.04079622       0.12129690       0.03555551      -0.53743589      -1.50555247       0.78038600       0.01144318      -0.07193725      -0.35765752       0.26065360
Al       6.03554043       4.14367144       1.92306096      -0.64905175       1.92013128       0.57672559      -0.07095759       0.23377351       0.05728255       0.42086624      -1.01257470       0.92957921       0.01565687       0.11933238       0.14509051       0.16874604
Al       6.16889272       6.02418562       0.06770858       0.22588629      -0.23145758       0.36973525       0.03075606      -0.02914671       0.05764528      -0.17575576       0.95235201      -0.96973734       0.03710552       0.02810433       0.22184729       0.01646942
Al       3.91365181       4.01375573       4.18350072       0.83746575      -0.09405805      -0.21891188       0.10847784      -0.01251655      -0.01795669       1.34787565       0.92636863      -1.05013420       0.08019029       0.71963960       0.20843141      -0.24850557
Al       3.89171285       5.88948265       6.20790652       0.05767441       0.12824348       1.39390377       0.01386655       0.01219301       0.16652193       1.31368125       0.91125659      -1.02908627       0.05901153       0.52460849       0.29470017      -0.01214687
Al       5.99109818       4.08138082       6.33284850      -0.96961269      -0.41721743      -0.57217029      -0.12835683      -0.04553886      -0.06945684       0.45556245      -0.00095790      -1.31320808       0.06189554      -0.24441611      -0.01014715      -0.53729336
Al       5.96196669       5.90315058       4.16919367      -0.02657944       0.58388764       0.95157990      -0.00086106       0.05901854       0.10893095      -0.30685928       0.87186422      -0.94226184       0.00821158      -0.01836220       0.21848565      -0.20943385
32
Lattice="8.1 0.0 0.0 0.0 8.1 0.0 0.0 0.0 8.1" Properties=species:S:1:pos:R:3:momenta:R:3:delta_positions:R:3:delta_momenta:R:3:energies:R:1:forces:R:3 energy=1.449040698910645 free_energy=1.449040698910645 stress="0.004018011886087889 0.00014961988468380642 -0.0002933175208150688 0.00014961988468380642 0.003154690791875408 -0.0008479883807222325 -0.0002933175208150688 -0.0008479883807222325 0.003764509759299545" pbc="T T T"
Al       0.00064867       0.08035638       0.02206484       0.96575375      -0.04393143      -1.36366928       0.11129153      -0.00879253      -0.16062320      -0.50780422      -0.07996944       0.81904949       0.03005223      -0.03100136      -0.10611213       0.01764084
Al       0.07089802       2.03499490       2.15828903       0.51649934       0.34575591      -0.76006689       0.06035090       0.04155941      -0.08381476      -0.52717687       0.20543272      -0.23331137      -0.00157740      -0.07836428       0.11891737      -0.09331792
Al       2.01409816       0.05170959       2.04693978       0.14487781       0.60901229      -0.14044549       0.00974984       0.07255937      -0.01357509       0.43898464       0.08612266      -0.23221126       0.03149729       0.01967155       0.11779111      -0.03334332
Al       2.01733826       2.03773003      -0.06936132       0.09409680       1.12451736       0.19725491       0.01289826       0.13981635       0.03275084      -0.49572756       0.42195604       0.87324003       0.04303736      -0.11841404       0.40014342       0.43539304
Al       0.03957440       0.02091190       4.05976331      -1.16474892       0.47040212      -0.89056722      -0.14054921       0.04382973      -0.10646359      -0.12083700      -0.24944645      -0.02994179       0.02020416      -0.29948066      -0.19638735      -0.19562021
Al       0.05693330       2.11721599       6.01032900      -1.83852372      -1.54273274       0.57936027      -0.23109321      -0.18248984       0.07537338      -1.27977725      -0.94869018       0.23556721       0.09887903      -0.92589721      -0.52415482       0.31258449
Al       1.86461607       0.04116826       6.23736612       1.29279312      -0.13718951      -0.03804850       0.15146282      -0.02979365       0.00384086       0.71467827      -1.13520524      -2.15874105       0.07370949       0.42108649      -0.59678647      -0.43249031
Al       2.17315678       2.00726168       4.23472267      -0.16932337       0.15230587      -1.03960365      -0.01652350       0.01891534      -0.12951100      -1.23022313      -0.50005560      -1.11449677       0.08392046      -0.30793525      -0.07726101      -0.65817510
Al      -0.01807588       3.96840491      -0.01337522      -0.07160993      -0.30478524      -0.35342885      -0.01067094      -0.04621829      -0.04032141      -0.31216276       0.23638301       0.54766951       0.02087363      -0.14541848      -0.17253629       0.08884990
Al       0.04921563       6.12861361       1.97666851       0.43726527       1.40038561       1.54908824       0.04584934       0.16849793       0.18477403      -0.22159131       0.01644058       0.09248227       0.04973933      -0.10175445       0.28044763       0.32974472
Al       1.92066454       4.11405338       2.00991488       0.75843062      -0.07175232       0.38812421       0.09350795      -0.01826978       0.04378524       0.74009969      -0.64943512       0.14473472       0.03482941       0.43029365      -0.39389219       0.07052624
Al       1.99932039       6.09820599       0.05560524      -1.00817225       0.26618979       0.27587056      -0.11980665       0.03117256       0.02710970      -0.43161178      -0.76131553      -0.25895493       0.04452231      -0.28428894      -0.15510630      -0.13429359
Al       0.21204721       4.10450390       4.20746865      -1.22758597      -0.58483932      -0.57963798      -0.13969965      -0.06195530      -0.08276234      -1.05568237      -0.12842245      -1.63220630       0.10283586      -0.42606297      -0.01812297      -0.85351795
Al      -0.11538239       6.05504800       6.12207244      -0.08611705       0.96597603      -0.13232719      -0.01451948       0.13301439      -0.01236845       1.72507663      -0.28814911      -0.50250215       0.06503156       0.44911718       0.44414301      -0.07997487
Al       1.95998116       4.12570255       6.19052216       0.37330629      -0.13256325      -0.53324561       0.05726933      -0.00949003      -0.05306843       1.39618542       0.54816726      -0.11545251       0.08950007       0.70509164       0.22348847       0.01796364
Al       2.18054460       6.17254386       3.97476654      -0.90561801       0.69257810       1.46211487      -0.10414576       0.07524995       0.17093446      -1.12066058      -0.67551412       0.86662793       0.05257724      -0.45835420      -0.20055974       0.48434206
Al       3.86992300      -0.10700256      -0.04507131       1.17344467      -0.14098603      -0.91302913       0.14092519      -0.01646863      -0.12117213       2.16638596       0.72646273       0.87554900       0.05511463       0.86199793       0.20355854      -0.08873681
Al       3.93067554       2.13090741       1.88328933       0.25430137      -0.73305966      -0.93307719       0.02454366      -0.07677107      -0.11316528       0.42603531      -0.78600651       0.95247910      -0.00049396       0.08206562      -0.18710616       0.09994812
Al       5.94687976       0.09030352       2.09089013       1.19346070       0.13115262      -0.30932698       0.13962071       0.01031363      -0.03859896       0.55993606      -0.23809612      -0.58913743       0.01238535       0.34451246      -0.14573636      -0.26671652
Al       6.08373027       1.90442595      -0.12646940       0.36120678      -0.53584185       1.09877543       0.04313515      -0.04810954       0.12858558      -0.03932735       0.03543708       0.95320728       0.03066784       0.05222174       0.22544073       0.47111227
Al       4.03063950       0.01811427       4.03950172       0.59796505      -0.09852958       0.06747888       0.06891766      -0.00936192       0.01726338       0.56840299      -0.16969662       0.33816480       0.05514298       0.22849959      -0.04427882       0.27018689
Al       4.07160699       1.96329663       6.16364049       0.11082335      -1.47810864       0.13772106       0.01614066      -0.17443788       0.01748366      -0.23535079      -0.68609022       0.04889928       0.07115962      -0.01086166      -0.41353934       0.04989002
Al       6.19183583      -0.12482338       5.98837310      -0.10377585      -1.42031454      -1.07261719      -0.00289321      -0.17279491      -0.12727373      -1.32878342       1.05039813      -0.18591890       0.02385150      -0.26032698      -0.01983930      -0.22904303
Al       5.94008761       2.08771225       4.14580410      -0.26385391      -0.00905585       1.09818323      -0.02587916      -0.00126388       0.13569322       1.33694418      -0.27755913      -0.53526140       0.01763408       0.43799141      -0.07593588       0.11269372
Al       4.01861687       3.99272261      -0.08498163      -0.15957128      -0.38397242       0.63253265      -0.01594887      -0.04973415       0.07848375      -0.02272247       1.02347160       0.37686211       0.02240621       0.04828826       0.16349498       0.30373919
Al       4.14243233       5.87436283       1.98640455       0.34272525      -0.20935507       0.00283611       0.04205423      -0.02954471      -0.00249758      -0.65816887       1.02577146      -0.13025366       0.02832606      -0.09218932       0.19988627      -0.08075958
Al       6.06734282       3.93073131       1.95961270      -0.01605308      -0.90017422      -0.70095090      -0.00380520      -0.11660034      -0.09418680       0.66871052      -0.90931630      -0.51170303       0.07248231       0.14377069      -0.56811680      -0.44815646
Al       6.17846208       6.11333640       0.01176282       0.32862774       1.11425468       0.68592487       0.03007178       0.13424354       0.07959719      -1.20535494      -0.02008390       0.84013269       0.03299224      -0.45395937       0.22920643       0.30568883
Al       3.96082314       3.91911416       4.14343549      -0.32769270       0.63429689      -0.86704708      -0.04361243       0.07641037      -0.10492457       0.36355991       1.81063759      -0.42560659       0.05059377      -0.02152268       0.63261893      -0.33115554
Al       4.06112875       6.10424355       6.06359343      -0.73602357       1.27317860       0.95586393      -0.08806673       0.16261909       0.11110155       0.12166190      -0.31707907      -0.35968982       0.00605467      -0.11435619       0.32923515       0.00271893
Al       6.00848974       4.03954377       6.18068336      -1.04275497      -1.76147653       1.23966961      -0.11834532      -0.22157374       0.14055661       0.56374725       0.33573468      -1.00058387       0.04168270       0.08174478      -0.47318489      -0.19381069
Al       6.22051457       5.83762469       3.80931909       0.17584667       1.30866234       0.25629029       0.02777030       0.16546851       0.03699387      -0.99744605       1.29771558       2.05130742       0.08940867      -0.17616497       0.80028478       0.74608899
32
Lattice="8.1 0.0 0.0 0.0 8.1 0.0 0.0 0.0 8.1" Properties=species:S:1:pos:R:3:momenta:R:3:delta_positions:R:3:delta_momenta:R:3:energies:R:1:forces:R:3 energy=1.2675436261008857 free_energy=1.2675436261008857 stress="0.004983971209136078 0.000754033304234946 -0.0013284924577474568 0.000754033304234946 0.00579539535308031 0.0006225234753359833 -0.0013284924577474568 0.0006225234753359833 0.004324312689017524" pbc="T T T"
Al      -0.10065023      -0.05590057      -0.01964242      -0.33669996       1.41734907       0.49710374      -0.03464817       0.16801706       0.05954040       0.10411996       0.21045853       0.85859284       0.03759210       0.10073655       0.28913188       0.35651114
Al      -0.17936336       2.00456237       2.07500033      -0.09571028      -0.77259046       0.73188738      -0.02475842      -0.08521854       0.08564529       1.71086177      -0.92666526      -0.55642177       0.02933647       0.26613391      -0.28223238      -0.06740137
Al       1.79484476      -0.03602407       2.08664757       1.27307912       0.08820377      -0.33237131       0.14344375       0.00194029      -0.04556923       1.79878844       0.42454418      -0.83224139       0.03884853       0.64138318      -0.00128759      -0.40951079
Al       2.01629997       1.98748414       0.01208763      -1.58787099       0.25978135       0.19153199      -0.19422626       0.02962864       0.01285866      -0.15430632      -0.42279203      -0.08329811       0.06599087      -0.45541432      -0.04763818      -0.17274499
Al       0.09134278      -0.13547172       4.15717707      -0.36372338       0.45877820      -0.53583615      -0.04032047       0.06268896      -0.05869288      -0.47144418       0.23894892      -0.38323569       0.06953676      -0.16152738       0.33415922      -0.14671707
Al       0.07651394       1.97067558       6.13549365      -0.12130122      -1.44121553       0.10320701      -0.01017128      -0.17712101       0.01482259       0.42341634       1.04539968      -0.23619654       0.00725111       0.13555684      -0.07041545      -0.02530137