9
Properties=species:S:1:pos:R:3:forces:R:3 energy=-97080.45994951588 pbc="F F F"
H        0.79839708      -0.02013980      -1.30097585       9.73489472     -10.92869515      -0.40045058
H        1.48666535       0.69434742       0.21900434     -16.51601474      -8.86156479      -0.44330023
H       -1.59543418       0.39793084      -0.68294729      26.34576210      20.83031749       0.85345557
H       -1.03883980       1.26253369       0.80856635       5.93317141     -13.92276997     -11.03448936
H       -0.60612062       2.04841865      -0.59915234      -0.89812900       0.73698422     -22.34596755
H       -0.38577901      -0.88672223       1.20657831      25.55169245      -1.93966409     -32.68859911
C        0.58048350       0.17473059      -0.23576914     -40.71387190     -16.79669384      14.48307990
C       -0.71361016       1.00579263      -0.25916941     -15.79336235       4.22925804      39.09573252
O        0.18436360      -1.10657600       0.39353072       6.35585733      26.65282808      12.48053884
9
Properties=species:S:1:pos:R:3:forces:R:3 energy=-97081.44850189528 pbc="F F F"
H       -0.20290910       0.38645238      -1.46244094     -11.93901943       9.40576534      15.43889554
H       -0.03362699       1.54086938      -0.06965285       1.52673274      13.06441103       2.61594850
H       -0.96741032      -0.31641315       1.59644191      -6.42357601       7.90540408     -45.13552940
H       -2.27625699       0.03668657       0.34594559       5.25787953      21.89664809      -4.03673169
H       -1.28713082      -1.29729915       0.11967940      11.30350117     -10.39372503      -4.16733565
H        1.58047338      -0.47358944      -0.90046760     -15.89035777      11.07044583      25.50199113
C       -0.06559603       0.47780717      -0.33780286     -20.50228856     -28.69691913     -21.27701509
C       -1.20672863      -0.24624897       0.43431423       9.85082295     -13.23210984      41.53557000
O        1.15583567      -0.16615721      -0.04911015      26.81630419     -11.01992155     -10.47579333
9
Properties=species:S:1:pos:R:3:forces:R:3 energy=-97080.22268600253 pbc="F F F"
H       -0.44728652       0.60284299       1.22761896     -14.73205726      12.50632333      15.01757451
H       -1.36723221      -0.59332014       0.21072909      -9.63266271       0.16210292       6.71063957
H       -0.85730401       1.87175918      -0.63465300       0.58361724      -9.90554978      -6.66580012
H        0.77340761       1.25954707      -0.76504486       0.18899497      -4.04002590     -19.36071168
H       -0.65934755       0.53229511      -1.82505309      16.48846338       1.54419751       5.05879796
H        0.44736433      -1.69245345       0.30811678     -22.57561958     -79.93171079     -19.79674045
C       -0.45757789       0.02310747       0.30806689      19.03209695     -38.58304160      16.06511933
C       -0.28349811       0.92237506      -0.84485086      -9.57976679      43.23932922      -9.21218124
O        0.68921331      -0.83464483       0.49609204      20.22693380      75.00837509      12.18330093
9
Properties=species:S:1:pos:R:3:forces:R:3 energy=-97072.95712505389 pbc="F F F"
H       -1.40103179      -0.13505771      -0.41215083     -68.61142432     -10.56829212      18.35096016
H       -0.27410342      -0.61390244      -1.43780747      32.76422603     -23.94233644     -42.11568195
H       -0.38000352       1.89837227      -1.01944435      -1.76103319     -10.88040022      11.25681421
H        0.02660654       1.71996742       0.73190865       2.44271309     -24.80687706     -14.87542539
H        1.11514611       1.17495290      -0.68345936      30.29234530      10.73378412      10.45176860
H        0.25925904      -1.81175512       0.55349340      -1.73641080     -18.96690051      -2.45376257
C       -0.36176115      -0.23418256      -0.45732575      18.49453818      46.23479144      80.61951190
C        0.11360337       1.19645302      -0.27366449      -7.85421574      35.06937676     -43.07027264
O        0.22743806      -0.86311724       0.69159894      -4.03073736      -2.87314597     -18.16391230
9
Properties=species:S:1:pos:R:3:forces:R:3 energy=-97079.1941788951 pbc="F F F"
H       -0.63854946      -1.45022770       0.00411815       5.44905879      19.39774606     -10.57360460
H       -1.03935304      -0.01623638      -1.14652490       9.41950545     -13.45761032       8.98090819
H       -1.83337743       0.59750783       1.15624086      13.77533209     -13.53820939      17.93391045
H        0.06119363       0.35656169       1.70195674     -12.92565811      -1.77854302      17.96745377
H       -0.55321399       1.67721235       0.61080899       1.31819899     -35.34513589      10.80890588
H        1.04940700       0.26472123      -1.36000190       6.59078270      28.22017757     -42.22436838
C       -0.39517144      -0.36875522      -0.27953343       3.77060973      18.90509789      22.95201697
C       -0.72773380       0.56895756       0.96541163       4.57647948      32.51125957     -66.64944308
O        1.02899035      -0.24044476      -0.57578097     -31.97430913     -34.91478365      40.80422079
9
Properties=species:S:1:pos:R:3:forces:R:3 energy=-97072.20394556456 pbc="F F F"
H        0.08084915      -1.47936652      -0.20012264      20.90947223     -30.22570571      13.35167381
H        0.58214575      -0.19537332      -1.40734440      -0.71402436     -14.10376539      29.59804707
H       -1.17784604       1.13631722      -0.65841558     -21.95630319      -6.04697466      -6.51522337
H       -1.84044644      -0.59426139      -1.07445273      -8.22439824       4.69354255     -12.33560779
H       -1.63969684      -0.03432003       0.55309411     -38.57465904      -3.92748674      73.95175043
H        0.76678499       1.13557114       0.55223484     -20.03174054      89.18235769      -7.96831425
C        0.16165790      -0.42100568      -0.34422485      36.52150950      48.05787628     -20.18861755
C       -1.27553583       0.05281625      -0.39843875      53.76922563      30.31675068     -40.24378754
O        1.03949511       0.27828438       0.69831756     -21.69908319    -117.94659351     -29.64992200
9
Properties=species:S:1:pos:R:3:forces:R:3 energy=-97070.815858336 pbc="F F F"
H       -0.87935395      -0.15919401      -1.21730030      28.41396088       6.27912166      10.86716764
H       -0.10909584       1.41295640      -0.83407068       5.12650716     -36.19018636      28.04942052
H       -0.93711596       1.02779721       1.56785159     -13.39045964     -21.24209622     -15.62669639
H       -2.14823902      -0.25472395       0.62550138      42.79747569      39.80171345       5.61781179
H       -0.83256198      -0.75066756       1.49935626      29.67605631     -15.73555476       5.63992498
H        1.10102760      -1.19816206      -0.86612535      -5.79819652      27.95038668      14.78449545
C       -0.16215553       0.30163890      -0.42246818     -35.10908635     -12.49308720     -33.70964083
C       -1.01965811       0.11629742       0.87294359     -43.59958639      19.65138132      -3.23317903
O        1.12685261      -0.31875228      -0.38700783      -8.11667232      -8.02167976     -12.38930414
9
Properties=species:S:1:pos:R:3:forces:R:3 energy=-97080.61265769074 pbc="F F F"
H       -0.29628961      -0.32103933      -1.50281619       3.04892971      -0.81742558       7.21056512
H       -0.24729977       1.33316057      -0.77163369      11.21494049     -18.54784914       1.31544315
H       -0.87933192       0.41591175       1.54130966      -3.41091463       7.78276053     -27.53786799
H       -2.11039350       0.32653284       0.27006689     -41.32792917       8.79195591      -9.01367835
H       -1.22548615      -1.06085611       0.99257887      -5.96015240     -39.30764467     -13.34278845
H        1.35120045       0.16748156       0.78340482      -1.76510649      18.36787352      35.09893573
C       -0.09294194       0.21072150      -0.53944299     -32.95165453      15.95583644      23.73338054
C       -1.17567506      -0.08729610       0.54222987      53.72195525      29.50497910      31.37213378
O        1.16695864      -0.14700343      -0.08480363      17.42993295     -21.73048729     -48.83612352
9
Properties=species:S:1:pos:R:3:forces:R:3 energy=-97079.11397847108 pbc="F F F"
H        0.68908334       1.36016321      -0.32532720     -18.23678812     -21.94552289       4.70871157
H       -0.51781325       0.94360148       0.95036463     -21.53516241      17.48511395      -6.05599520
H       -1.23695954       0.92309296      -1.52914065      -2.96904925     -34.31962599      17.12455201
H       -0.33414212      -0.56386899      -1.83414397      -8.47476182       1.36623067      24.29113622
H       -1.80589052      -0.66114936      -0.66458961      20.27055541       9.80565977      -0.90799385
H        1.43801575      -0.75217898       0.31405900      56.88539733     -31.41889545     -47.27259356
C        0.00822983       0.51094768       0.09216145      33.35978568       4.41826131      24.72904807
C       -0.89497373      -0.05698301      -0.97189428     -12.01435345      35.35052426     -51.57526934
O        0.77697663      -0.41961125       0.85500142     -47.28562218      19.25825319      34.95840526
9
Properties=species:S:1:pos:R:3:forces:R:3 energy=-97077.94200109526 pbc="F F F"
H       -0.45993606       0.53402157       1.21825111       2.05571921      18.02885677      44.03761920
H       -1.48280602      -0.18809392       0.15114829     -26.66377558       5.28819860     -20.98582844
H        1.17337741       1.41153395      -0.40397169      -6.45728416     -11.44986706       7.43747079
H        0.20648339       0.70667795      -1.64687112      -4.15480389      -3.91826817     -35.01841848
H       -0.42854416       2.13993592      -0.62661878      10.79118853     -42.41728842      -5.96803099
H       -0.00176250      -1.78479006      -0.28631828      15.32915610      43.37674572      33.84191798
C       -0.44073403       0.09398310       0.25249501      -9.45498996     -16.80570608      20.53163289
C        0.12501083       1.09463343      -0.65155940       7.06587953      75.34272682      -9.80920775
O        0.29951958      -1.06999632       0.40002016      11.48891022     -67.44539819     -34.06715402
9
Properties=species:S:1:pos:R:3:forces:R:3 energy=-97079.92222178938 pbc="F F F"
H        0.16712676      -1.19985031       0.84958249     -32.31755689       3.56385116      -8.17404946
H       -0.93496191      -0.92263607      -0.68150202      17.86555380     -17.64771254      -2.24784356
H       -1.75179348       0.29946017       1.28426460       1.61483569       5.83196277       2.76985384
H       -0.20725260       1.35456114       1.05486243     -21.08364800       0.24635788       1.36623067
H       -1.47331516       1.17441302      -0.27787521      -2.45072094      10.99517702       3.26953986
H        1.05895494      -0.40161254      -1.43156577       3.77816578       0.48325765     -17.56186622
C       -0.17406277      -0.48797864       0.01855790     -17.64730699     -26.13751651      40.70575377
C       -0.98570278       0.68695664       0.58412528      33.87945752       0.46678541      -1.51818416
O        1.06846394      -0.16863939      -0.50269058      16.36121885      22.19783834     -18.60943594
9
Properties=species:S:1:pos:R:3:forces:R:3 energy=-97077.54987115158 pbc="F F F"
H        0.25646646      -0.70603082       1.24814148      25.60533306      -9.73018345      25.67883500
H       -0.74156522      -1.30415920       0.04132189       1.95979340     -14.40665966     -19.59853758
H       -1.84240457       0.32768948       1.12246832      28.89598528      16.68957507       7.74331182
H       -0.47651709       1.63510579       0.74587179       0.02193532       2.59738210      15.17004501
H       -1.64336372       0.94310841      -0.38378703      15.36931156       0.63752467     -12.26644833
H        0.96245446       0.67635883      -0.73651157      12.54438700      27.98224257     -13.15033207
C       -0.07542610      -0.45712149       0.25290407       8.30320909     -18.45698323      -5.67021915
C       -0.96684674       0.68763743       0.47179200     -70.00232600      16.28405747     -12.20940204
O        1.00191441      -0.27218050      -0.67238707     -22.69762989     -21.59695673      14.30274735
9
Properties=species:S:1:pos:R:3:forces:R:3 energy=-97073.58174870539 pbc="F F F"
H        0.32139109      -0.95888158       1.21450186      -5.62255626      -7.99055551      23.12971700
H       -0.39804986      -1.37739441      -0.41399473     -12.33822252     -17.57000095       7.64857540
H       -2.00497780       0.14030634       0.84993496      18.52200773      23.27009805     -26.83583585
H       -0.73508246       1.48899255       0.87678059      -5.38259114     -32.20109977     -24.13499679
H       -1.32684394       0.85840695      -0.79243347       1.68958629      -5.07835452      11.04473248
H        1.63384818       0.32923028       0.09341360      48.69816509      28.54645978      49.12201785
C       -0.09571760      -0.59442292       0.28625639      47.23627424      58.47762296     -75.78490882
C       -1.06952916       0.55295401       0.25207270     -48.33824350       0.28421285      70.79681662
O        1.03279337       0.00075515      -0.51929622     -44.46441873     -47.73838170     -34.98611908
9
Properties=species:S:1:pos:R:3:forces:R:3 energy=-97080.02725072639 pbc="F F F"
H        0.68660887       0.49559763       1.28837273       4.45861599       7.04350902      -1.18070660
H       -0.98706412       0.75487257       0.83931172     -23.09514557       7.39781693       7.20516252
H       -0.34891056       1.73289186      -1.07261954     -12.32128900      14.63339576     -16.36033423
H        1.32444670       1.31833201      -0.87915491      19.24305452       5.06453615      -2.62975383
H        0.24878167       0.12207148      -1.59131864      -6.56938338     -17.33113508     -22.37821714
H        0.53472072      -1.56434574       0.44453964      43.69643358     -16.05619959       4.61229009
C       -0.05528554       0.35630236       0.47668388      13.41161588     -74.92507472       3.84293296
C        0.32028384       0.90862099      -0.86900248       6.28289376      20.08885561      23.33165995
O       -0.29088444      -1.12980803       0.35567576     -45.10679459      54.08429473       3.55696628
9
Properties=species:S:1:pos:R:3:forces:R:3 energy=-97075.25487945565 pbc="F F F"
H        0.46401241       0.79285848      -1.38125642      -4.70682137     -31.07553504      32.86258040
H        0.20788686       1.53876961       0.19087164       2.23752099     -34.36532872      -2.19523224
H       -1.77791125       0.57126884      -1.11048699       6.64662657     -18.12118243      37.03804129
H       -1.43206998      -1.09946349      -0.58902215       5.95031246      26.43485283      22.80294859
H       -1.94568196       0.23901528       0.70762861      22.58095578     -11.26973610     -11.81676958
H        1.07884093      -1.25289728       0.08899116      -4.52317920     -28.89618924     -19.43244555
C        0.16051448       0.47118191      -0.27603520      12.76473864      23.46197338      17.80286656
C       -1.29449855      -0.01470279      -0.19208423     -30.47035720      11.60680455     -71.95897935
O        1.06572144      -0.39251262       0.48328917     -10.47979548      62.22433959      -5.10301012
9
Properties=species:S:1:pos:R:3:forces:R:3 energy=-97078.09991335492 pbc="F F F"
H        1.01598992       0.08086265      -1.15841812      10.79205655       4.49420129      17.18137656
H        1.21715646       0.75364502       0.62585141       3.15019409       0.12272536      -9.91066067
H       -1.48522286       0.55315340      -1.07258549      14.25175704      -6.10499214      -0.00458676
H       -1.29128171       0.91950758       0.57906134     -19.58378952      19.34400465      36.11595040
H       -0.57219152       2.05329630      -0.80743259      -6.05223970     -11.95308564      23.69844033
H        0.90730026      -1.55654698       0.90237933      -6.18990641      14.73482378     -10.98446550
C        0.58286502       0.23090702      -0.12661968     -55.38788915     -38.42851489      -7.32868357
C       -0.78169642       1.03511562      -0.34571802      43.72805824     -17.01660910     -39.52317357
O        0.16231922      -1.12713673       0.41324323      15.29175768      34.80744668      -9.24419722
9
Properties=species:S:1:pos:R:3:forces:R:3 energy=-97076.53856544431 pbc="F F F"
H       -1.45666131       0.27539563      -0.23977018     -34.56167341       0.42511566       0.75660007
H       -0.18851714      -0.13814463      -1.42816244      -5.29216873       8.21223646     -16.70000674
H        1.37903252       0.85525728      -0.02389291      56.38207914       1.86049749      -8.59929438
H        0.14404508       2.16390268      -0.55387475      18.45146324     -31.44299845      11.26652608
H        0.29274240       1.62288314       1.07114096     -12.09722930      -6.20990884      29.89829815
H        0.31242072      -1.01058649       1.09121061      11.26528334       8.84704560      39.49081726
C       -0.40961095       0.09678593      -0.38593292       5.72054540     -75.81393772      18.15479571
C        0.39610325       1.21004824       0.07991633     -17.47382612      69.85146229     -29.36804878
O       -0.02035437      -1.21855422       0.23497656     -22.39447474      24.27048633     -44.89968620
9
Properties=species:S:1:pos:R:3:forces:R:3 energy=-97076.05161293995 pbc="F F F"
H        0.01817897      -1.49328493      -0.05659591      15.12708152      41.82415378     -13.79155650
H        0.65538253      -0.36167884      -1.32732693       6.16643783       5.95378454      -6.52432455
H       -1.43782167       1.20853277      -0.59925378      11.72806186      -3.81507683       4.88473604
H       -1.65486803      -0.39125619      -1.16463474     -33.56859335     -32.30472986     -42.80517641
H       -1.65917584      -0.14666268       0.55294852     -18.89571212      -0.18574227      19.32664423
H        1.07995846       1.14972804       0.49569935      -3.64902394     -41.48209895       9.65637439
C        0.18310152      -0.32337916      -0.32020968      -9.28367795     -99.38828543     -26.71167801
C       -1.20426899       0.12925156      -0.38454741     -13.39114623      53.45647719      17.16551739
O        0.95541656       0.14781761       0.66130335      45.76657237      75.94151902      38.79946462
9
Properties=species:S:1:pos:R:3:forces:R:3 energy=-97062.45127046404 pbc="F F F"
H        0.94936465      -0.07328943      -1.28688645      -9.36148915      -4.01676009      15.25627435
H        1.27900730       0.62100685       0.46435163      -8.81707990      -2.84603810     -42.74423588
H       -1.30689461       0.81313694      -1.10847023     -12.35883209      13.88113223     -39.92578235
H       -1.54448979       0.86908055       0.44518307       7.77159721     -11.90032846      28.64352042
H       -0.50368424       2.06107284      -0.11290810      22.93010774      80.71344790      -3.34436754
H       -0.39195374      -1.00987840       1.22345858      42.97718924      10.93972803     -57.11203975
C        0.49536812       0.06768304      -0.25883230      23.49815989     107.13327638      62.53463931
C       -0.71967563       1.07480733      -0.25068209     -10.27250566     -98.20707841     -16.48465215
O        0.26399751      -1.06446508       0.40613246     -56.36714847     -95.69737829      53.17664358
9
Properties=species:S:1:pos:R:3:forces:R:3 energy=-97073.78594534157 pbc="F F F"
H       -0.75846219      -0.56169814      -1.22063259     -12.33351837      -1.06216363      27.29762895
H       -0.30803147       1.06693807      -1.12660709       6.26865797      -4.44459247      22.73449470
H       -2.03356844       0.50760914       0.84039349     -15.33410690       9.45583189      -4.31237935
H       -0.88343855      -0.55045125       1.44501545       8.29201138     -81.26651246      44.19980987
H       -0.50618756       1.05407555       1.55373943      19.29263607      36.25230559      16.70882094
H        1.78728975       0.22241501      -0.66641651     -17.15382638      -3.59915305       6.13658716
C       -0.29512056       0.13737315      -0.46254404      41.93512765      -2.72225024     -28.79055512
C       -0.96674251       0.32626508       0.94126084       2.63285001      21.07578838     -89.34660339
O        1.11746174      -0.45769384      -0.41137608     -33.59983143      26.31074717       5.37219624
9
Properties=species:S:1:pos:R:3:forces:R:3 energy=-97074.79026775256 pbc="F F F"
H       -0.66839451      -1.32526024       0.31144014      11.35582671       1.79802488       0.64268062
H       -0.87718169      -0.32777313      -1.10691550      -7.95312744      -4.87213787     -10.66413729
H       -1.87231135       0.42121703       0.67584253      -5.25865150      20.73982512      16.68480214
H       -0.29697804       0.74370430       1.62179236     -11.65767745       1.18661792      -2.73971620
H       -0.70437341       1.78936486       0.17239648      -3.01155026     -36.03673519       7.80611291
H        1.27734375       0.53644170      -0.36421264      18.22854667      28.21451053      -1.44411659
C       -0.33511742      -0.35450370      -0.14110857      34.91203017     -84.82597608     -82.13084793
C       -0.79963523       0.70824522       0.61686918     -33.70787396     100.18660269      62.62536529
O        1.04972802      -0.38141938      -0.43970183      -2.90752292     -26.39073436       9.21985587
9
Properties=species:S:1:pos:R:3:forces:R:3 energy=-97078.86656147918 pbc="F F F"
H       -0.32874242      -1.31270307       0.58070067     -10.91664602     -41.93768191      22.86415830
H        0.95377866      -0.90132411      -0.76256762     -22.88724624      -5.67431972      33.78326253
H       -0.40323990       0.86868266      -1.40547463       4.19147422      25.97742355     -16.10834725
H       -1.16507230      -0.72983822      -1.68422254       0.79792357       7.00117047       0.72700080
H       -1.84694523       0.33190197      -0.39439589      21.98757922       0.91986747     -11.44593843
H        1.34140157      -0.05791176       1.37570328     -24.31131889      32.03462236     -15.55066154
C        0.10011178      -0.55892439      -0.02060825      82.82112148      48.16158700     -17.29479086
C       -0.87370712       0.03547077      -0.92285269     -66.20221898      -9.23374777      -1.67716244
O        0.67194693       0.50633313       0.85253620      14.51933282     -57.24892263       4.70247890
9
Properties=species:S:1:pos:R:3:forces:R:3 energy=-97077.20162940437 pbc="F F F"
H       -1.41126006       0.20548540      -0.65762250      15.03081064     -10.22297984       8.03539378
H        0.16220686      -0.16736737      -1.53210127     -16.05017680       9.30182931      25.33731142
H        1.38493531       1.19145070       0.13341306      10.43980959      -3.07490394       6.22593640
H        0.07247864       2.09713667      -0.45356733     -23.13607300      53.92121825     -28.15975761
H       -0.09495670       1.24150885       1.18212350       8.50154003      17.62490328     -13.22327785
H       -0.49664461      -1.90761492       0.40455001     -38.42251464     -17.79321160     -14.59895003
C       -0.29652916       0.02358683      -0.46628590     -12.74512990     -47.64376978     -56.90184941
C        0.29115255       1.26096022       0.11829686      13.59770796     -56.49656542      59.02199665
O        0.02811752      -1.13201407       0.31939490      42.78402611      54.38347975      14.26319547
9
Properties=species:S:1:pos:R:3:forces:R:3 energy=-97083.81604476573 pbc="F F F"
H       -0.54345184       0.22554527      -1.35897672       1.53565130      -2.51437226       6.82516972
H        0.95295194      -0.61634154      -0.99714203       3.59221125       9.59001229       7.39399385
H        1.09730760       1.11496441       1.13151901      -6.10743967      -4.40216023       0.69812724
H        1.27167264       1.68991266      -0.49499664       6.24509097      13.47466598     -10.40419939
H       -0.29732364       1.92211418       0.31727564      -9.88527935       7.75629182       4.44716095
H        0.03565761      -1.70729828       0.60264436     -18.22535325      17.45140580      -5.12651546
C        0.12377619      -0.05006449      -0.49853149     -30.08145770     -40.97158876      -5.25150811
C        0.53937790       1.23905924       0.17655660      15.59843709     -17.54929058       9.26246954
O       -0.65644585      -1.05828603       0.29208406      37.32813818      17.16503595      -7.84469715
9
Properties=species:S:1:pos:R:3:forces:R:3 energy=-97076.80985294681 pbc="F F F"
H       -0.55100876       0.46864764       1.32674224      12.90859178       1.71939427      16.80342812
H       -1.48063994      -0.09782450       0.03319797      -2.04554131     -12.02435941       1.69668580
H        1.00153521       0.78096860      -0.87854841      52.88033655     -12.50377144     -28.96248375
H       -0.58962627       1.22183329      -1.59806415      10.88151015      -1.16101248      13.09387750
H        0.26847246       2.13686265      -0.26591360     -10.24976398      10.31098792       8.31514912
H        0.52794569      -1.48228927      -0.44396493       5.16141892     -17.08134425     -61.13177151
C       -0.40748035       0.06664690       0.32158298     -56.68168750      17.47398976     -18.53285681
C        0.04143735       1.14246359      -0.66572518     -20.85427582       3.79140310      -2.92330502
O        0.32659315      -1.09854230       0.37341665       7.99941360       9.47471372      71.64127655
9
Properties=species:S:1:pos:R:3:forces:R:3 energy=-97077.17395477572 pbc="F F F"
H        0.15744246      -0.24862756      -1.46509026      19.41498434       9.94519889      36.58915704
H        1.41951152       0.54787266      -0.33690887      -7.67090678     -14.87520602       6.62119783
H       -1.75096534       0.86881896      -0.33787742      42.40017821       0.87381493      16.67843428
H       -0.56272150       1.74961909       0.82150008      -1.21556381     -12.93218843      -2.56363956
H       -0.51855349       1.93730029      -0.90009013      12.85232220      13.28849801     -16.46015308
H        0.06108690      -1.94015008      -0.04299810       6.21307143      30.93940990       6.50956701
C        0.38565861       0.08835367      -0.34745837     -12.66163150     -57.93889853     -48.26566533
C       -0.62123573       1.17026114      -0.13897164     -62.67376576       7.21050583      18.50400934
O        0.25201761      -1.12856321       0.50763064       3.34131287      23.48886543     -17.61290751
9
Properties=species:S:1:pos:R:3:forces:R:3 energy=-97078.04455198166 pbc="F F F"
H       -1.16740370      -0.04642054      -1.04643286      -8.99547600       0.13085535      19.29144313
H       -0.41837058       1.37343273      -0.37195045       5.67419403      49.38694569      -6.00798605
H       -1.21933400       0.63701467       1.72605327     -15.45330919       5.75982928       2.87158187
H       -0.76561308      -1.04364447       1.48839180       9.01921258     -18.32863589       3.43779957
H        0.40770982       0.37763062       1.55269789      58.46279072       4.38836320      31.40264140
H        1.52310139      -0.22711024      -0.23440265     -14.59951093       2.70320596     -10.30770439
C       -0.40725086       0.31780532      -0.30939538      17.92824816     -69.51074982       5.61401954
C       -0.49867449      -0.02438477       1.23740941     -53.23929407      15.10499323     -65.01094671
O        0.78332510      -0.28782980      -0.89285742       1.20314589      10.36519418      18.70915282
9
Properties=species:S:1:pos:R:3:forces:R:3 energy=-97076.40244644874 pbc="F F F"
H        0.31816244       0.14452600       1.37647552      20.19748156     -13.62878121      12.18007431
H       -0.23831965      -1.35139007       0.55610218     -18.13106980     -34.49819285       9.66486724
H       -1.88750527       0.05489248       0.82359826     -15.17070195      15.41345731      -9.51264576
H       -1.08996872       1.61655413       0.51238219       9.85721097       3.86862140       1.88520170
H       -1.60323935       0.66992579      -0.89396567       7.95460853     -12.98787340      10.62620762
H        0.89879979      -0.28727641      -1.40954210     -28.68583170      -4.44537511     -36.74453517
C        0.01193100      -0.32288566       0.43166138      26.66891612      51.04421124     -47.55685503
C       -1.16713230       0.58135727       0.14491912     -37.14658542     -15.28527598      -0.36495421
O        1.09406919      -0.24750278      -0.49363403      34.45597170      10.51920861      59.82264049
9
Properties=species:S:1:pos:R:3:forces:R:3 energy=-97068.67854993218 pbc="F F F"
H        0.26198382       1.46392721      -0.13934628     -10.62385969      52.16331444     -10.52002683
H        1.01269733       0.46978893       1.13741496      -2.64742375      -0.74165636      -8.18038768
H       -1.73269756       0.88549675       1.13283804      16.80834097     -54.75256537     -26.02396228
H       -1.63732582      -0.53755268      -0.24255852       4.83013491      11.71483640      21.41432368
H       -1.20171090      -0.82079587       1.52365035      11.30521112     -15.43739310       7.93243368
H        0.26375071       0.03176322      -1.59627581      30.72177853     -27.09146092      26.50954533
C        0.29654172       0.50469098       0.28007993     -12.93025673    -117.01502554      -3.30759642
C       -1.14907517      -0.11796465       0.69799166      -0.72502878      99.01247146     -11.41786768
O        0.83102575      -0.38444223      -0.84862332     -36.73889659      52.14748017       3.59353700
9
Properties=species:S:1:pos:R:3:forces:R:3 energy=-97080.41161192645 pbc="F F F"
H       -1.20407843      -0.20290366      -0.79603625     -22.74623196     -17.52804897      -1.55666405