192
Lattice="12.4244 0.0 0.0 0.0 12.4244 0.0 0.0 0.0 12.4244" Properties=species:S:1:pos:R:3:momenta:R:3:future_positions:R:3:future_momenta:R:3:forces:R:3 ipi_comment="Step:      200000  Bead:       0 positions{ase}  cell{ase}" total_energy=-946.5336789715727 energy=-953.858642578125 stress="0.009959893301129341 0.0003706172719830647 0.0011696642613969743 0.0003706172719830647 0.0060079265385866165 -0.0024414475774392486 0.0011696642613969743 -0.0024414475774392486 0.004305399022996426" pbc="T T T"
O        1.07971546       9.03300820      13.34642392      -1.10862049       0.37241202      -1.07515686       1.05444421       9.03939069      13.32422206      -0.80884055       0.00546427      -0.61936238      -0.20474093       0.10217951      -0.07192436
H        0.29159265       9.81853045      13.36760239      -0.02458250      -0.23956692       0.16571865       0.32981262       9.71837329      13.42295396       0.10477124      -0.15088929       0.07498345       0.96761131      -0.53925669       0.12206590
H        1.27718298       8.70431695      14.27178173       0.13709478       0.20154608       0.20974737       1.27776027       8.82103710      14.31171440      -0.13859534       0.37051615      -0.08427425      -0.53754008       0.46692848       0.20134813
O       -0.90730402      -4.75789792       6.61528223       0.35443295      -0.45799864       0.92067017      -0.89566732      -4.77066652       6.64027090       0.52215382      -0.54183886       1.06910174       0.74410814      -0.49693143       0.58788490
H       -0.04014655      -4.84456709       7.12630288       0.08048988      -0.02967214       0.10539510      -0.04237074      -4.84843498       7.14688824      -0.06569463      -0.01710474       0.03497781      -0.32993180       0.23115277      -0.30863145
H       -1.40194791      -5.55002256       6.89636060      -0.27692010       0.12101108      -0.06066323      -1.49820791      -5.49924113       6.87330331      -0.18513981       0.12672832      -0.04114530      -0.03020576       0.09655276      -0.07763878
O       10.30689892       3.61585943       8.21170872      -0.02849860       0.57630222       0.07681851      10.30302744       3.62877706       8.21534440      -0.36692360       0.54800494       0.23909000       0.06731933      -0.77815354       0.25199956
H        9.38807495       4.00082396       8.16257493      -0.35102920      -0.41982445       0.07839861       9.31460450       3.87143594       8.19153100       0.05073520      -0.23651567       0.07208589       0.14875099       0.47778299      -0.05867075
H       10.31395218       2.65907192       7.88197923       0.06886270       0.09372771       0.14060338      10.35986594       2.68909139       7.93421256       0.17531125      -0.02865148       0.09352346       0.18501110       0.43709081       0.16489442
O        8.11032369      11.33587508       0.44625920      -0.15286544       1.05768571       0.05624513       8.10563754      11.36187982       0.45528419      -0.34181919       0.89445142       0.68051284       0.58345240       1.11403894       1.38244724
H        8.59951912      11.95917086      -0.17919386      -0.21277135       0.27811247       0.30305059       8.52864565      12.00841977      -0.14496218      -0.10107111       0.03402476      -0.18628843      -0.13930911      -1.09894347      -0.60346448
H        7.63987623      10.60548945       0.06593301      -0.09805725      -0.04183361       0.09123810       7.62202530      10.61291294       0.04260998       0.07263209       0.18523870      -0.15604741      -0.20627587      -0.44393140      -1.05228472
O       14.30299493       3.76074777      -2.39823758       0.08681496      -0.58192210       0.42499857      14.30765439       3.74846569      -2.38545389       0.16954909      -0.34329844       0.53252581       1.10847402       0.00513750       0.96484870
H       14.77243477       4.59307710      -2.02929422      -0.18517991       0.17974793      -0.21747895      14.65671636       4.65809681      -2.11805882      -0.32972007       0.14970267      -0.18510077      -0.90293390       0.01024330      -0.29949838
H       13.58636409       4.08624261      -3.01246268      -0.05995195       0.10322745       0.05691451      13.56804964       4.14319916      -3.00137998      -0.00422750       0.10199425       0.02771689      -0.15587595       0.64573979      -0.33212480
O        9.89729806      22.05424593      -5.85172713       0.30092909       0.69253365      -0.47999666       9.89966966      22.07612823      -5.86375594      -0.02313855       0.97386209      -0.43471282      -1.20087373       1.26071167      -0.41451859
H        9.59240653      22.48304421      -5.01810135      -0.16523682      -0.04218808       0.02465637       9.54238953      22.47000218      -5.02591858      -0.09203253      -0.00734710      -0.07895916       0.15449075       0.00873593      -0.02344200
H       10.59801645      21.39384136      -5.67036818      -0.25208623      -0.10018520       0.26398454      10.53923540      21.31506125      -5.57821830      -0.11896918      -0.20148344       0.14804455       0.65514207      -0.76323920       0.08350588
O       -2.34323611       8.38425943       1.29045535      -0.78067456       0.04386063      -1.13207226      -2.36448615       8.37968139       1.26496745      -0.74599500      -0.48554079      -1.00369775      -1.47594559       0.20972067       0.67613363
H       -1.74486811       7.66050758       1.11812263       0.07724779      -0.29062014       0.05407017      -1.71166606       7.58195840       1.11501935      -0.04880806       0.06925205      -0.04275726       1.09422350      -0.92438775      -0.54710776
H       -1.93108894       9.20801552       0.99631579       0.02448883      -0.13735829       0.05888937      -1.88346090       9.21784655       0.97979369       0.17329737       0.08790548      -0.10877106       0.40760398       0.78819996      -0.47424078
O        5.46240523      10.18721477      -7.05751662       1.14083068       0.37793911       1.11414048       5.49967702      10.19819517      -7.03125426       1.80042800       0.50492913       1.00397860       2.07494378       0.41828376      -0.34416354
H        5.13661338      10.24491829      -7.98522419      -0.02898936       0.16068365       0.20472618       5.11065766      10.29591840      -7.93626428      -0.09037543       0.09411538       0.07246971      -0.15178385      -0.13284582      -0.25684723
H        6.57277240      10.10771293      -7.27944255       0.19818122       0.04290737      -0.10163418       6.54066093      10.11052287      -7.28627967      -0.30397132      -0.02781551       0.06485842      -1.56178737      -0.16889215       0.39058548
O        5.12847703      -2.54621496       2.44480105      -0.99287464       0.32290870       1.13441312       5.10580374      -2.52808452       2.46789496      -0.78812503       1.02063303       0.79224670      -0.14718378       2.33436108      -0.92026126
H        4.79561736      -1.60721639       1.97938006       0.12761057       0.11846419       0.00850873       4.83645804      -1.66551857       2.04244977       0.02116627      -0.29399833       0.25690580       0.13011585      -1.60271347       0.87512994
H        6.08076466      -2.48971175       2.21783960      -0.04130187      -0.09050466      -0.28760089       6.03173238      -2.55723575       2.13553940      -0.21213132      -0.26520595      -0.11773855      -0.15334356      -0.34098983       0.22412789
O        4.56072291      22.84697759       9.27643803      -0.68489969      -0.47759934      -0.19841877       4.54095161      22.84232323       9.26833591      -0.82444540      -0.08550363      -0.33873564      -0.68391681       1.80428386      -1.05261171
H        4.89870133      22.21862931       9.92179458      -0.06533973      -0.09917869      -0.19181388       4.90184165      22.12095652       9.91129153       0.02837756      -0.26792591      -0.00051687       0.48260173      -1.07307482       1.17364669
H        3.86125720      23.42790558       9.68441357      -0.32919635      -0.29972726       0.09379951       3.77661539      23.25637298       9.71698139      -0.13918723      -0.52735051       0.09181877       0.47251442      -0.78354627      -0.03627810
O        8.34436850       5.32248212      -4.14842306       0.48153356       0.24889682       0.57778148       8.35228351       5.32667595      -4.13129085       0.27770279       0.07530693       0.66657680      -1.16489959      -0.26113075       1.26729727
H        8.49467493       5.88550165      -3.29404430       0.21859887       0.06096724      -0.12683937       8.57753183       5.90955760      -3.36944241       0.19778098       0.10587461      -0.15778801       0.03217431      -0.16042513      -0.79183483
H        7.40746309       4.90066356      -4.00795617       0.04225943       0.01057496       0.00396399       7.46440104       4.92588859      -4.04069285       0.12680868       0.08243906      -0.13135540       0.92287397       0.35233557      -0.58792007
O        7.72505252       6.72647756       6.18147655      -0.80107200       0.19424158      -0.13008176       7.70849086       6.73141346       6.18281712      -0.52799001       0.13652221       0.22838778       0.38531184       0.47539973       0.67258543
H        7.72757064       7.66561820       6.46605197       0.10608987      -0.03529294       0.12096449       7.76303238       7.64896417       6.48732352       0.07526381      -0.01223168       0.00551675      -0.05916284      -0.18663645      -0.39624637
H        8.09717614       6.27491457       7.03324240       0.28424320      -0.18182313       0.01475162       8.14782838       6.20688690       6.96937430      -0.04579331      -0.13689292      -0.34373569      -0.52317214      -0.22174545      -0.63086027
O       12.55159491       5.00747347       8.60622047      -0.41410740      -0.30398928      -0.80649833      12.54111444       5.00007005       8.58645238      -0.27482366      -0.38805207      -0.86700243      -1.18467331       0.68470156       0.42145455
H       11.67219369       4.50689030       8.49070472       0.13624636       0.17572186      -0.06633558      11.69349859       4.54391586       8.44233895      -0.13211042      -0.05388485      -0.19611782       0.33150762       0.11502777      -0.17043245
H       12.27692720       5.88047872       9.02817195       0.04693850      -0.41956013       0.19452032      12.30748148       5.75434496       9.12174167       0.06030831      -0.06130451       0.37321615       0.48307621      -0.76600933      -0.34936404
O       15.16604095      11.20636444     -13.11519757      -0.21921712      -0.51784162       0.25959752      15.15311864      11.19394665     -13.10758554      -0.59016549      -0.22160078       0.11774351      -2.07947731      -1.02406597       1.24010897
H       14.56963430      10.53599512     -12.54183359       0.22503036      -0.22762285      -0.03085965      14.71909925      10.52021363     -12.63079605       0.30819688      -0.04451929      -0.25625718       1.62476707       1.23487186      -1.40276504
H       14.42269524      11.83863730     -13.39957625       0.06523787       0.30474815      -0.49548842      14.49998692      11.87619478     -13.52575063       0.32025802      -0.18646132      -0.07932630       0.39423692      -0.28938371       0.26420426
O       16.79838865       2.01668887      -7.86865169       0.24423592      -0.26245159      -0.25926454      16.80331858       2.01248908      -7.87018998       0.26495163       0.03186659      -0.02088708      -0.66969502      -0.31635964       1.45845449
H       17.25867914       2.16904053      -8.69220747       0.04026484       0.32958330       0.03015215      17.30931302       2.27942186      -8.72794963       0.11115689       0.16770030      -0.03792925       0.89473575       0.05542845      -1.33128893
H       16.82516661       2.89311873      -7.38282809       0.05023109       0.14679948       0.14349931      16.83166650       2.90721143      -7.34126341      -0.02075582      -0.12639232       0.04630513      -0.12296928      -0.02236205       0.04204358
O       -0.71280457       7.80913089      -2.51884621       0.32918144      -0.03605024       0.88660178      -0.70605138       7.81020916      -2.50583465       0.23376358       0.24898926       0.30315162      -0.52390593      -0.88427150      -1.09771669
H       -0.76962637       7.61507874      -1.58556151       0.06269522      -0.11544527      -0.24469186      -0.73013174       7.53816812      -1.54266355       0.15532174      -0.21316902       0.30177140       0.17926878      -0.42672426       1.27697945
H       -0.48239604       8.74267838      -2.59644600      -0.13728285       0.23994553       0.02682943      -0.54763746       8.83316137      -2.58716646      -0.22154235       0.04751257       0.06287074       0.09502132       1.16551960      -0.24928707
O       -0.55417327      -1.71915593      -2.89222190       0.70407584       0.21804552       2.10386813      -0.53229080      -1.71274467      -2.84306322       1.41312601       0.30289941       1.81977202      -1.44164681       0.04421961       0.34426963
H        0.16622212      -1.42887292      -3.47414329       0.30554823      -0.01418908      -0.31034944       0.22816659      -1.44289078      -3.57174970      -0.11742470      -0.11004817      -0.04340257       0.55041540       0.41595536      -0.88951540
H       -1.41357275      -1.37094074      -3.29910593       0.23903552      -0.29796113      -0.13736949      -1.31770165      -1.51182649      -3.34517326       0.05313895      -0.35600606      -0.18169393       1.09917259      -0.74257851       0.50238258
O        2.61617323      12.29209047      -8.73373100      -0.33778983      -0.20202462       0.13811613       2.60640707      12.29174236      -8.72972106      -0.40029816       0.19484000       0.20693935      -0.57547063       0.47735405      -0.12968883
H        2.88384092      13.14208372      -8.28762298       0.08439960       0.15353867       0.07642620       2.90119315      13.15111750      -8.29266215      -0.00952935      -0.13007571      -0.11614123      -0.00269696      -0.17152774      -0.17764220
H        1.60400465      12.29730475      -8.87389626      -0.08716158      -0.03844068       0.02472844       1.60967766      12.30481267      -8.87362511       0.09183424       0.07786974      -0.02094800       0.49417779       0.26987377      -0.14370394
O        3.98939182      14.95274618      -3.03790604      -0.80462101      -0.87599331      -0.09168462       3.96665505      14.93564228      -3.04605364      -0.98477543      -0.54756944      -0.56025859      -0.46331009       0.77146482      -0.78147417
H        3.10279390      15.44316712      -2.76548972      -0.11677535       0.02394587      -0.21941123       3.09229584      15.42641631      -2.82754596       0.05618750      -0.09789695      -0.06689915       0.37572381      -0.33579865       0.13712904
H        4.57029182      14.67824371      -2.31713279      -0.14238481      -0.08541324      -0.16062183       4.54337720      14.63668650      -2.31759623      -0.03505810      -0.10553141       0.12430970       0.20212838      -0.05130774       0.46232605
O      -10.36207337       4.95515298      -6.07330155       0.41318106      -0.04682247      -0.26797876     -10.35535022       4.95479906      -6.07699872       0.12760378       0.03771871      -0.01023828      -0.24563205      -0.02605210       0.09922713
H      -10.62806002       5.64847668      -5.38641495      -0.10963297       0.24269913       0.12772024     -10.66725999       5.64759514      -5.41411656      -0.06216594      -0.22458401      -0.26150379      -0.24835135      -0.86825252      -0.58805245
H      -11.00754133       4.16901963      -6.18899630      -0.14738310      -0.12062729       0.08230537     -11.02693119       4.21288756      -6.13922068       0.04068942       0.29536406       0.14643114       0.24713960       1.02363348       0.30128634
O        3.37230826       0.68205111     -17.09046174      -0.82218491       0.40624173      -0.18131942       3.34666187       0.68413265     -17.09972969      -1.27979849      -0.42423706      -0.72816819      -0.70909917      -0.08433056       0.26209372
H        4.18962671       0.32583668     -17.48113967      -0.07224125       0.02054368       0.08914800       4.19385429       0.34010884     -17.45483899       0.06238952       0.03771476       0.04434222       0.37299615       0.21259274      -0.02237308
H        3.57583731       1.46813158     -16.46186758      -0.09242327      -0.30883926      -0.42859040       3.58354255       1.42904016     -16.55183087       0.16085365       0.30964141       0.12161380       0.26524577      -0.59945405      -0.28015643
O        9.74302713      12.35386802      -1.44132942       0.70900570       0.50481602       1.72541713       9.75936389      12.36387228      -1.39543713       0.63871315       0.41411651       2.02485270      -0.13575761      -0.33085433       0.73755020
H        9.67971757      12.15811697      -2.41428845      -0.02764004      -0.03981350       0.15235600       9.64896715      12.13057030      -2.34620089      -0.12555159      -0.11976213       0.16039079      -0.27658015      -0.04488015       0.28838468
H       10.02508794      13.27510520      -1.33458434      -0.13430899      -0.06184603      -0.13591695       9.98716382      13.33412377      -1.38857909      -0.07986722       0.27249260      -0.13592142       0.08936606       0.84741229      -0.10145336
O       -2.02732371      -0.13461549       5.36336323       0.23791010       0.49223767      -0.92116897      -2.02163540      -0.12405012       5.33726218       0.15757502       0.35400638      -1.21056681       0.42124021      -0.20946240      -0.65684080
H       -2.09762285      -1.06443559       5.70700244      -0.19309182      -0.06938095      -0.27286879      -2.17624451      -1.07543773       5.59638497      -0.16677783       0.02349890      -0.27077890      -0.25491977       0.06658569      -0.14499831
H       -2.93953682       0.26165905       5.15604430      -0.13196988      -0.00168081      -0.03751512      -2.97741525       0.23515883       5.16980909      -0.01991724      -0.10340162       0.10135266      -0.16346991      -0.41755655       0.34522879
O        3.47004954     -16.79472269       0.11820496      -1.11307344       0.32286534       0.41002215       3.44751524     -16.78856638       0.13301322      -0.69810377       0.17213902       0.50793682       0.50759697      -0.14376456       1.93663311
H        2.57967385     -16.37792319       0.39647382       0.10586918      -0.02558012       0.01070585       2.62024171     -16.38169871       0.39485252      -0.05094440       0.07530667       0.03863389       0.79278028      -0.26075098      -0.36770037
H        3.95400657     -17.07525750       1.05473454       0.10439075       0.05345047      -0.12760163       3.92780980     -17.05426370       0.91872502      -0.11728628      -0.00681503      -0.33399793      -1.14119601       0.16079682      -1.80358839
O        0.38728304       3.02327162      -0.30014964      -0.26171115       0.86982132       1.33584433       0.37510925       3.03744310      -0.26735401      -0.61235412       0.62121216       1.44905602      -1.12860274      -2.15952229      -0.87518996
H        0.94528296       3.42805940      -0.96594370      -0.02303760      -0.03629737       0.39607702       1.03793021       3.44673491      -0.93525442       0.36254424       0.03541880      -0.10603604       1.23068511       0.45689020      -1.39510405
H        0.36174161       3.62321000       0.41505985      -0.08257035       0.24547874      -0.22173773       0.33162457       3.78841831       0.44727743      -0.06078904       0.35721304       0.13683002       0.07359359       1.58853686       2.18532777
O       -3.54006828       7.16456170      -2.41434048       0.45499226      -1.57553267       0.41050804      -3.52833486       7.12655255      -2.40420439       0.49791920      -1.51736936       0.40147192       0.35178024       0.23171809       0.04460883
H       -3.70259405       7.41277431      -1.46872028       0.22435844      -0.33115586       0.05647803      -3.63645550       7.28183585      -1.45056010       0.07775517      -0.33987795       0.09309275      -0.05998263      -0.05489479      -0.38413376
H       -2.64253433       7.50303235      -2.68482257      -0.08108861       0.07154239       0.30675558      -2.64600853       7.53479594      -2.55879421       0.11566598       0.09824088       0.28853120      -0.14382792      -0.06095032       0.43776032
O        8.45798853      -8.91564832       4.01758160      -0.55795713      -0.26388876       0.41257895       8.44582259      -8.92058872       4.03486903      -0.45700499      -0.14237921       1.00533463       0.40316689       0.17681740       0.23729402
H        8.85222685      -9.28113665       3.19243579      -0.29198675       0.16092911       0.25985281       8.75403290      -9.29293733       3.18622899      -0.18529728      -0.23040268      -0.30889062      -0.44461966      -0.43579826      -0.23994166
H        7.65331585      -8.39697591       3.78288721      -0.13432974      -0.48693095       0.16567385       7.55280975      -8.54961379       3.85176739      -0.37932715      -0.27696945       0.19197671      -0.08680660       0.06704915       0.15378101
O      -10.25262419       6.03708383       3.84227956      -0.48839387       0.40138612       0.13215514     -10.26115139       6.04003055       3.84289136      -0.31923890       0.20889860      -0.23205171       1.15874839      -3.09864187       0.47825903
H      -10.35794070       5.65990091       4.78542189      -0.04564670       0.09538395      -0.25103700     -10.36324715       5.68001522       4.72828587       0.00044838      -0.04833100       0.10429689       0.26533049       0.20074806      -0.50613552
H      -10.64461902       6.89540969       3.87053318       0.07631833       0.07265467       0.05697776     -10.68609122       7.02019505       3.88307432      -0.16326200       0.27572406      -0.00537410      -1.45043314       2.42730379      -0.05706490
O       -0.10994940      -5.65920254     -12.35524045       0.51776142       0.21719371      -0.89200618      -0.09932105      -5.65870939     -12.37413627       0.42765668      -0.04547583      -0.53291991      -0.75937176      -1.22957027      -0.16424996
H        0.25741435      -4.83186021     -11.98190138       0.16028199      -0.11296777       0.18780329       0.35621755      -4.84518022     -11.90472011       0.26733622      -0.03505485       0.11365897       0.78381515       0.72392267       0.44981030
H        0.01864805      -6.41313201     -11.68274153       0.07207550      -0.05231395       0.14080658       0.06531011      -6.36928017     -11.67525252       0.14594782       0.23611747      -0.12125525       0.35676324       0.71866560      -0.25788164
O        2.26761557       6.22182665      -1.47990394      -1.26374833      -0.36949045      -0.30966804       2.23891253       6.21464597      -1.48740811      -0.75271561      -0.20903237      -0.32037064      -1.31217611       0.02014160      -0.19774747
H        2.94583532       6.74184411      -0.96508785       0.09283673       0.12989604       0.19278853       2.89902773       6.76890176      -0.90930406      -0.34755933      -0.05044492       0.02249718      -0.56985432       0.22563969       0.33528265
H        1.31603660       6.44915816      -1.13389717       0.13233635       0.12179045      -0.08138930       1.40968707       6.49464641      -1.14720592       0.04306226       0.17012618       0.09328639       1.81624627      -0.23255908      -0.09820504
O        7.92489585     -14.79918398      -7.79744260      -0.09228677       0.63446730       0.26649908       7.92135561     -14.78708222      -7.78893075      -0.11458816       0.43420651       0.40569082      -0.60634798      -0.71697295       0.23859589
H        8.73424931     -15.04625173      -7.28880523       0.02856140       0.16848169       0.15740668       8.73495538     -14.96738123      -7.21260560      -0.07703591       0.23559102       0.19387042       0.17690641       0.15354107       0.38770580
H        8.06180051     -13.97296291      -8.29015667      -0.07026176      -0.05608080       0.01463745       8.05788248     -13.93836796      -8.31819081       0.02778814       0.14209584      -0.10602052       0.34145975       0.78446674      -0.45025644
O       10.37280732       2.74276601      -1.41045042       0.82006708      -0.15367238      -0.00164558      10.38819355       2.74053460      -1.41456929       0.38946486      -0.06651214      -0.28324423      -0.23209336       0.59322381      -0.72041881
H       10.24263953       3.13846631      -2.32915596       0.08680172      -0.04121017      -0.04618248      10.28706049       3.09879601      -2.32365730       0.12936828      -0.12804657       0.01321787       0.18243587      -0.39735597       0.43822077
H       11.27827748       3.03988029      -1.12116777      -0.23389373       0.05597518       0.01259839      11.25562458       3.06129895      -1.08642240       0.18076717       0.06629228       0.17982553       0.07793063      -0.24519613       0.16496386
O       18.40868521       4.14738346      -4.39924954       0.51695937       0.20230128      -1.20669990      18.41471957       4.14794946      -4.42515228       0.01122461      -0.11748088      -0.93757514      -1.17454565      -0.89637530       0.85291028
H       17.65412510       3.64814836      -3.90263411      -0.13456546       0.01477491       0.04715237      17.67121208       3.70641866      -3.91995037       0.18479915       0.24953774      -0.10950602       0.78447592       0.66404760      -0.39253253
H       18.00403019       4.22159131      -5.33480004      -0.18996555       0.06409056      -0.11201580      17.95030021       4.25879164      -5.35105613      -0.07980596       0.12008965       0.04208614       0.16361743       0.19822864       0.13433591
O       14.05723173      -4.90276184       7.82970285       0.60105549       0.36902355      -0.84849547      14.07252619      -4.89558388       7.81149967       0.58309322       0.23932145      -0.83372859       0.59795767      -0.30710399       1.31929362
H       14.35711978      -4.98937937       8.79071521      -0.20116391      -0.07898189      -0.09166928      14.24213146      -5.03786705       8.73932100      -0.32175701      -0.16438087      -0.01452476      -0.79570407      -0.25466034      -0.91751128
H       14.77908986      -4.30993241       7.49768594      -0.03768160       0.04279517       0.03741370      14.78796832      -4.27626425       7.47535445       0.07777601       0.10624131      -0.11260533       0.14061785       0.16146538      -0.52361292
O       12.37431314      12.33203303      -9.46533798       0.15911650       0.88193850      -0.19560066      12.37660218      12.35447877      -9.46569000       0.02214488       0.97930491       0.14965568      -0.13530231      -0.14293516       0.75878000
H       12.24332568      13.30862899      -9.65573280      -0.05491596       0.19685603       0.00720733      12.20069685      13.35490296      -9.62106696      -0.15390543      -0.00332289       0.17685088      -0.31188053       0.06795990       0.28183597
H       11.80440004      12.20141005      -8.65075213      -0.08871024      -0.15183198       0.06059219      11.79620909      12.16071001      -8.67752473       0.04433153      -0.05032279      -0.19068616       0.15213439       0.09891832      -0.37542221
O       18.15541242     -12.10248205       6.35057003      -0.23034632       0.74702880       0.66048516      18.14549759     -12.08732551       6.35944621      -0.58418111       0.55182265       0.09697418      -0.61527699      -0.87974620      -1.34980762
H       17.58653359     -11.47007863       5.76306389      -0.33719730      -0.12236817      -0.09853522      17.51523850     -11.54849204       5.76147141      -0.02628679      -0.21886815       0.08606128       0.55355412      -0.51918942       0.31976098
H       18.05855947     -13.06775193       5.90062237      -0.00552580       0.07486017      -0.07325030      18.05727082     -12.98166639       5.91817300       0.01391976       0.25777524       0.14116882      -0.07696450       1.01974559       0.54863411
O        0.96921831      -4.10025340       3.65339114      -0.70537621       0.79829887      -1.22917710       0.95560432      -4.08158702       3.61953218      -0.42520140       0.64139615      -1.57277446       0.85904324       0.34104317      -0.38613003
H       -0.02203000      -3.99660236       3.79855466      -0.10020611      -0.31755712      -0.03689463      -0.04985955      -4.08518995       3.81477004      -0.02879460      -0.09469608       0.11980695       0.06532058       0.19357976       0.34981596
H        1.48659183      -3.38629061       4.14144723       0.18474586       0.05055557      -0.56213047       1.51254268      -3.35281078       3.96659445      -0.04511946       0.16332371      -0.27802514      -0.60573924      -0.12033224       0.20085993
O       -1.63788862       1.12761199      -4.94693894       0.11986244      -0.57893911      -0.13512973      -1.63043158       1.11393829      -4.94844310       0.56602618      -0.58200019      -0.10599230       0.38431442       0.38707915       0.86688673
H       -0.70231618       0.83946123      -4.91320717       0.15428307       0.15244290       0.08604991      -0.64852759       0.89906685      -4.84633124       0.02418636       0.16090672       0.24430331       0.52618337      -0.10705422       0.45563060
H       -1.86585966       0.74680081      -5.83659770       0.38644134       0.03656458      -0.18423870      -1.74303127       0.73315943      -5.94901875       0.24869554      -0.08265478      -0.25282606      -0.35224211      -0.45513171      -1.10080838