8
Properties=species:S:1:pos:R:3:DFT_forces:R:3:forces:R:3 DFT_energy=-117.795271870558 energy=-117.795271870558 pbc="F F F"
H        0.00000000       0.00000000       0.00000000       2.41408437      -0.55136659      -1.48928594       2.41408437      -0.55136659      -1.48928594
H       -0.29350761       0.59341350      -0.43309080      -0.26961771       4.53082031      -4.99609748      -0.26961771       4.53082031      -4.99609748
H        0.79183379       0.02154280       0.15414932       3.70553105      -0.44442962       1.25136163       3.70553105      -0.44442962       1.25136163
H        0.37635083      -0.82724051       0.34057792       0.67508961      -2.05909088       1.17459954       0.67508961      -2.05909088       1.17459954
H       -0.91742871      -0.52118611       0.24572291      -2.04567748      -4.71641880      -0.21513257      -2.04567748      -4.71641880      -0.21513257
H       -0.77232250       0.36406016       0.76200407      -4.85345548       0.02290454      -0.31303931      -4.85345548       0.02290454      -0.31303931
H       -0.40677746      -0.41671118      -1.04825719      -2.09486961       1.51344796       2.00894344      -2.09486961       1.51344796       2.00894344
H       -0.24923665       0.51791103       1.20123174       2.46891525       1.70413308       2.57865070       2.46891525       1.70413308       2.57865070
8
Properties=species:S:1:pos:R:3:DFT_forces:R:3:forces:R:3 DFT_energy=-118.579173264327 energy=-118.579173264327 pbc="F F F"
H        0.00000000       0.00000000       0.00000000       2.75887200      -0.73940487      -1.50160965       2.75887200      -0.73940487      -1.50160965
H       -0.65382437      -0.66185252       0.02322559      -1.88672627      -1.33478176       1.87218934      -1.88672627      -1.33478176       1.87218934
H       -0.92942039       0.29828079       0.47292620      -1.37115732      -0.74185686       0.71521158      -1.37115732      -0.74185686       0.71521158
H        0.69702111       0.41620317       0.76580462      -0.23514124       1.07906639      -0.00955808      -0.23514124       1.07906639      -0.00955808
H       -0.76399960       0.40712778      -0.72826320       2.03905697       0.18967928      -0.98369340       2.03905697       0.18967928      -0.98369340
H        0.58143293      -0.16771795      -0.96131814      -1.07116320       0.70684964      -0.62927959      -1.07116320       0.70684964      -0.62927959
H        0.68040494      -0.77321734       0.57853039      -0.94455059       1.16328951      -0.45869598      -0.94455059       1.16328951      -0.45869598
H        0.08430640       1.21364677       0.19139334       0.71080965      -0.32284133       0.99543577       0.71080965      -0.32284133       0.99543577
8
Properties=species:S:1:pos:R:3:DFT_forces:R:3:forces:R:3 DFT_energy=-117.389024532442 energy=-117.389024532442 pbc="F F F"
H        0.00000000       0.00000000       0.00000000      -6.24246110       5.67907659      -1.13527644      -6.24246110       5.67907659      -1.13527644
H        0.78655895      -0.18074101       0.03323656       7.56318459      -0.30208232      -0.31369879       7.56318459      -0.30208232      -0.31369879
H       -0.00155472       1.07365452       0.03156489      -1.87656446      -0.18083636       1.44073327      -1.87656446      -0.18083636       1.44073327
H       -0.33443365      -0.38536801       0.95470078       0.38234609      -0.72011732       2.55125793       0.38234609      -0.72011732       2.55125793
H       -1.04761159      -0.05093436      -0.39734911       1.76920357       0.86956611      -2.73925247       1.76920357       0.86956611      -2.73925247
H        0.22383720      -0.36364582      -1.14721280      -1.73035911      -1.41600270      -1.12749616      -1.73035911      -1.41600270      -1.12749616
H       -0.79736369      -0.92941563       0.63749396       0.25311884      -1.40410295       0.54297101       0.25311884      -1.40410295       0.54297101
H        1.25298686       0.37159247      -0.50477209      -0.11846842      -2.52550104       0.78076165      -0.11846842      -2.52550104       0.78076165
8
Properties=species:S:1:pos:R:3:DFT_forces:R:3:forces:R:3 DFT_energy=-118.217370315214 energy=-118.217370315214 pbc="F F F"
H        0.00000000       0.00000000       0.00000000       1.94833095       2.15209124       2.01537463       1.94833095       2.15209124       2.01537463
H       -0.03802191      -0.89963354      -0.10698852       2.05582092      -4.37153141      -1.45011105       2.05582092      -4.37153141      -1.45011105
H       -0.50695283      -0.42792497       0.67116551      -2.21237544       0.02260359      -0.56638028      -2.21237544       0.02260359      -0.56638028
H        0.42619721       0.88640781      -0.10717955       1.58033428       1.78369567       2.74366812       1.58033428       1.78369567       2.74366812
H        1.08197583      -0.10958995       0.10630641      -0.67700402       1.11118733       1.46982288      -0.67700402       1.11118733       1.46982288
H       -1.16683628       0.05950016       0.01254626      -0.18834753       1.21264595       1.10095907      -0.18834753       1.21264595       1.10095907
H       -0.03428962       0.57927865      -1.04142022      -1.87763502       1.06482752      -2.30402031      -1.87763502       1.06482752      -2.30402031
H        0.38550983      -0.07199985      -1.15921560      -0.62912415      -2.97551988      -3.00931307      -0.62912415      -2.97551988      -3.00931307
8
Properties=species:S:1:pos:R:3:DFT_forces:R:3:forces:R:3 DFT_energy=-118.329099455199 energy=-118.329099455199 pbc="F F F"
H        0.00000000       0.00000000       0.00000000      -4.54669375      -5.64647053      -4.14486291      -4.54669375      -5.64647053      -4.14486291
H        0.29958892       0.69132769       0.10353299       2.89890222       9.12432005      -1.16392243       2.89890222       9.12432005      -1.16392243
H       -0.80955329      -0.31318930       0.53346249      -0.58171147      -0.87968888       0.25079652      -0.58171147      -0.87968888       0.25079652
H        0.69411698      -0.42568602       0.74899054       4.00718642      -0.43600440       0.08448695       4.00718642      -0.43600440       0.08448695
H        0.13084594      -0.85114873      -0.73410691      -1.46569816       0.27733937       0.79889068      -1.46569816       0.27733937       0.79889068
H        0.04439797       0.81759096      -0.79451248       0.74658857      -0.20271757       1.02684387       0.74658857      -0.20271757       1.02684387
H       -0.21038551       0.57895056       1.04095878      -0.62214646      -1.21516779       0.59797958      -0.62214646      -1.21516779       0.59797958
H        1.29765841      -0.27974900      -0.03127490      -0.43642738      -1.02161024       2.54978777      -0.43642738      -1.02161024       2.54978777
8
Properties=species:S:1:pos:R:3:DFT_forces:R:3:forces:R:3 DFT_energy=-117.283006878978 energy=-117.283006878978 pbc="F F F"
H        0.00000000       0.00000000       0.00000000       4.53921348       2.15965884      -1.90449394       4.53921348       2.15965884      -1.90449394
H        0.00744870      -0.82145025       0.16954309       1.18971987      -4.74770581      -1.62826882       1.18971987      -4.74770581      -1.62826882
H       -0.19436256      -0.29646571       0.81095878      -1.67239849       0.24579821       5.20637299      -1.67239849       0.24579821       5.20637299
H        0.22442458       0.80766730       0.33953597       1.40638671       3.05995369       0.47625936       1.40638671       3.05995369       0.47625936
H       -0.54848107       0.88030799      -0.31795824       5.41857707       4.35690519      -0.65286137       5.41857707       4.35690519      -0.65286137
H        0.79142209      -0.59285787      -0.68020968      -1.30107611      -0.83608360      -0.93862108      -1.30107611      -0.83608360      -0.93862108
H       -1.16573876       0.44594451      -0.27056302      -6.11481177      -0.56090990      -6.53005611      -6.11481177      -0.56090990      -6.53005611
H       -1.23404549       0.20904617       0.34581202      -3.46561076      -3.67761663       5.97166898      -3.46561076      -3.67761663       5.97166898
8
Properties=species:S:1:pos:R:3:DFT_forces:R:3:forces:R:3 DFT_energy=-117.970994058618 energy=-117.970994058618 pbc="F F F"
H        0.00000000       0.00000000       0.00000000      -1.04573784      -2.64469977       1.23892562      -1.04573784      -2.64469977       1.23892562
H       -0.69857160      -0.29360868       0.39713691      -3.07858055      -0.62935131       0.94791677      -3.07858055      -0.62935131       0.94791677
H        0.84714339      -0.57967077      -0.09346592       2.63981802       0.54325762       0.73035245       2.63981802       0.54325762       0.73035245
H        0.49621476       0.89538901      -0.19459963       2.46758744       1.89104069      -3.01194714       2.46758744       1.89104069      -3.01194714
H        0.19331373       0.46608288      -1.06581582       0.84205385      -0.39205429      -2.11477228       0.84205385      -0.39205429      -2.11477228
H       -0.14596454       1.16651666       0.14826487      -3.16880347       1.59116083       1.38700568      -3.16880347       1.59116083       1.38700568
H       -0.55880584      -0.80597340      -0.72367047       0.76619932       2.40733083       1.37976235       0.76619932       2.40733083       1.37976235
H        0.83636987       0.36260281       0.83973967       0.57746324      -2.76668459      -0.55724345       0.57746324      -2.76668459      -0.55724345
8
Properties=species:S:1:pos:R:3:DFT_forces:R:3:forces:R:3 DFT_energy=-118.547516232914 energy=-118.547516232914 pbc="F F F"
H        0.00000000       0.00000000       0.00000000      -2.32758917       2.41994012       2.17905365      -2.32758917       2.41994012       2.17905365
H        0.14120194       0.51991608      -0.57702065      -0.75543597       3.04990777      -3.64692748      -0.75543597       3.04990777      -3.64692748
H       -0.29769764       0.02287104       0.91798382       0.68802529       0.55586356       2.84031606       0.68802529       0.55586356       2.84031606
H        0.95379271       0.04307502      -0.43569753       0.08006209       3.35272075      -1.25878365       0.08006209       3.35272075      -1.25878365
H       -0.97900165      -0.45902789       0.23099802       1.53034678      -1.10252605      -1.37218030       1.53034678      -1.10252605      -1.37218030
H        0.26007790      -1.13008439       0.35961243       1.21292273      -1.35646728      -0.06925541       1.21292273      -1.35646728      -0.06925541
H       -0.45367579      -1.03664916      -0.55482167      -1.69109071      -1.18819874      -1.46420855      -1.69109071      -1.18819874      -1.46420855
H        1.09395535      -0.67108137      -0.21995251       1.26275896      -5.73124014       2.79198568       1.26275896      -5.73124014       2.79198568
8
Properties=species:S:1:pos:R:3:DFT_forces:R:3:forces:R:3 DFT_energy=-117.699360635517 energy=-117.699360635517 pbc="F F F"
H        0.00000000       0.00000000       0.00000000      -3.05668866      -1.24237741      -1.10474897      -3.05668866      -1.24237741      -1.10474897
H        0.64711864      -0.49842037       0.30733501       1.64610534      -1.95998100       1.18558819       1.64610534      -1.95998100       1.18558819
H       -0.10689485       0.87634974      -0.51677488      -3.35487847       0.75660556      -1.05643553      -3.35487847       0.75660556      -1.05643553
H       -0.17404956      -0.86072155       0.67574924       0.03272897       1.36786155       0.04716319       0.03272897       1.36786155       0.04716319
H        0.75110990       0.84052974      -0.24610974       3.74195782       0.23724602       1.30314539       3.74195782       0.23724602       1.30314539
H       -0.04698988      -0.51500002      -1.06678104       1.13842703       0.84983012       0.03690815       1.13842703       0.84983012       0.03690815
H       -0.99354133       0.70864872      -0.05914085      -1.04926046      -0.16323176       0.45926838      -1.04926046      -0.16323176       0.45926838
H        0.38974801       0.82794061       0.95925011       0.90160844       0.15404690      -0.87088880       0.90160844       0.15404690      -0.87088880
8
Properties=species:S:1:pos:R:3:DFT_forces:R:3:forces:R:3 DFT_energy=-119.390960080084 energy=-119.390960080084 pbc="F F F"
H        0.00000000       0.00000000       0.00000000      -2.97265138       2.00221090      -0.02750457      -2.97265138       2.00221090      -0.02750457
H       -0.48442681       0.08304431      -0.74817138      -1.64360875       0.97972791      -0.76113707      -1.64360875       0.97972791      -0.76113707
H        0.13860686      -0.77621248      -0.43158952       0.96646685      -1.74108307      -1.52533269       0.96646685      -1.74108307      -1.52533269
H        0.03376627       1.06319163       0.23537432      -0.32256056      -0.41108046       0.25677789      -0.32256056      -0.41108046       0.25677789
H       -0.34485950      -1.03399534       0.58983309       1.46877717       1.42437080       2.14523860       1.46877717       1.42437080       2.14523860
H        0.11957817       0.12104400       1.23184094      -0.90984705      -1.37342704      -0.19874483      -0.90984705      -1.37342704      -0.19874483
H        0.98121097       0.76907970      -0.07323654       1.66103307      -1.56644550      -0.22344121       1.66103307      -1.56644550      -0.22344121
H        1.17066646      -0.30730379      -0.44866660       1.75239064       0.68572646       0.33414387       1.75239064       0.68572646       0.33414387
8
Properties=species:S:1:pos:R:3:DFT_forces:R:3:forces:R:3 DFT_energy=-118.186945367723 energy=-118.186945367723 pbc="F F F"
H        0.00000000       0.00000000       0.00000000       2.90989400       0.32450306      -3.41708665       2.90989400       0.32450306      -3.41708665
H        0.59107983       0.47369298      -0.38329893       1.95510585       2.75539080      -4.35188215       1.95510585       2.75539080      -4.35188215
H       -0.73523882       0.26886383       0.39926368      -5.95643707       2.69746881       2.35703487      -5.95643707       2.69746881       2.35703487
H       -0.09857513      -0.47228008      -1.02450243      -0.14796898      -0.63392226       0.43778874      -0.14796898      -0.63392226       0.43778874
H        0.79179569      -0.54134299       0.64206553      -0.06095402       0.59190221       3.14854945      -0.06095402       0.59190221       3.14854945
H       -0.90622179      -0.59308383      -0.49308785       0.25624247      -2.53716914      -0.76071978       0.25624247      -2.53716914      -0.76071978
H        0.67310547       0.40880474       0.89244043       0.49300994      -3.43026653       0.41056453       0.49300994      -3.43026653       0.41056453
H       -0.88537697       0.87867177      -0.20790367       0.55110780       0.23209305       2.17575099       0.55110780       0.23209305       2.17575099
8
Properties=species:S:1:pos:R:3:DFT_forces:R:3:forces:R:3 DFT_energy=-119.521937120941 energy=-119.521937120941 pbc="F F F"
H        0.00000000       0.00000000       0.00000000       0.06645812       3.01241483      -0.28462197       0.06645812       3.01241483      -0.28462197
H       -0.52675781      -0.68092354       0.16140381      -4.32838512      -4.16704216       0.74314801      -4.32838512      -4.16704216       0.74314801
H        0.44320179       0.62681094       0.66436082       0.24732482       1.48653781       0.10295400       0.24732482       1.48653781       0.10295400
H       -0.21730609       0.84431282      -0.60195072      -0.48773889       2.61033144      -0.35056052      -0.48773889       2.61033144      -0.35056052
H        0.17155978      -0.42265384      -0.99930248       3.13843506      -0.40766274      -1.69291045       3.13843506      -0.40766274      -1.69291045
H        1.00780741       0.00121711       0.75716263      -0.47248592      -0.64686001       0.47971747      -0.47248592      -0.64686001       0.47971747
H        0.99521353      -0.30154899      -0.82783689      -0.78914466      -1.25641509      -1.18785076      -0.78914466      -1.25641509      -1.18785076
H       -1.28894233      -0.18029015      -0.38099277       2.62553659      -0.63130408       2.19012422       2.62553659      -0.63130408       2.19012422
8
Properties=species:S:1:pos:R:3:DFT_forces:R:3:forces:R:3 DFT_energy=-114.771291337033 energy=-114.771291337033 pbc="F F F"
H        0.00000000       0.00000000       0.00000000       6.20528647       3.62615591       4.06294996       6.20528647       3.62615591       4.06294996
H        0.02121630      -0.43793965      -0.41885487       3.49707652      -9.36999825      -8.14173802       3.49707652      -9.36999825      -8.14173802
H       -0.54421378      -0.70030095       0.45097487      -4.31475702      -3.00805227       2.05520281      -4.31475702      -3.00805227       2.05520281
H       -0.34670050       0.84389583      -0.41923059      -3.08356540       5.86700194      -1.40551349      -3.08356540       5.86700194      -1.40551349
H        0.47865084      -0.04398891       0.92103241       3.08030068       2.72716714      -0.96316871       3.08030068       2.72716714      -0.96316871
H       -0.37003775       0.36300181      -1.06751977      -2.83380882       0.48732123      -2.58953678      -2.83380882       0.48732123      -2.58953678
H       -0.33699063      -0.33708959       1.12515722      -4.22396622      -1.01116937       4.86576152      -4.22396622      -1.01116937       4.86576152
H        0.36507618       1.17791249      -0.09895667       1.67343380       0.68157367       2.11604272       1.67343380       0.68157367       2.11604272
8
Properties=species:S:1:pos:R:3:DFT_forces:R:3:forces:R:3 DFT_energy=-117.520771032749 energy=-117.520771032749 pbc="F F F"
H        0.00000000       0.00000000       0.00000000       2.49529592       2.64020112      -0.56869326       2.49529592       2.64020112      -0.56869326
H       -0.68791185       0.15147116      -0.14679270      -6.12271172       4.49977265      -1.03645623      -6.12271172       4.49977265      -1.03645623
H       -0.09699977      -0.93110265       0.27858799       1.18665988      -4.89677818      -3.22545654       1.18665988      -4.89677818      -3.22545654
H        0.95815154      -0.23467951       0.54404339       2.70182431       0.25261408       0.95674814       2.70182431       0.25261408       0.95674814
H       -0.32184770      -0.49813038       0.96627282      -0.67784688       1.77344018       1.79605244      -0.67784688       1.77344018       1.79605244
H        0.24942503       0.80615915      -0.80832084      -1.64028798      -1.67517419       1.79295352      -1.64028798      -1.67517419       1.79295352
H        1.13495071       0.36363735      -0.00981147       1.35907707       0.17699481       0.84873886       1.35907707       0.17699481       0.84873886
H        0.17020773      -0.68906228      -0.97108622       0.69798940      -2.77107048      -0.56388693       0.69798940      -2.77107048      -0.56388693
8
Properties=species:S:1:pos:R:3:DFT_forces:R:3:forces:R:3 DFT_energy=-116.972726859333 energy=-116.972726859333 pbc="F F F"
H        0.00000000       0.00000000       0.00000000      -0.26046243      -0.94654694      -2.14347141      -0.26046243      -0.94654694      -2.14347141
H       -0.21512112       0.12371105       0.75001768      -2.91838106       0.15435120       5.66741941      -2.91838106       0.15435120       5.66741941
H        0.86607259      -0.42757942      -0.43294686       3.24528017      -0.96139596       0.28746543       3.24528017      -0.96139596       0.28746543
H       -0.53539981       0.87687892      -0.60070080       1.56611336       1.31142530      -1.37367074       1.56611336       1.31142530      -1.37367074
H       -0.82894499      -0.80258138      -0.29240269      -0.42014662      -0.01935210       1.38388064      -0.42014662      -0.01935210       1.38388064
H        0.84628136      -0.50931137       0.67083213       0.87947495      -0.94212615      -3.43631620       0.87947495      -0.94212615      -3.43631620
H       -0.37875277      -0.41086853      -1.18183263       0.21580077       1.39444349       1.53024923       0.21580077       1.39444349       1.53024923
H        0.49793459       0.99583160       0.75684988      -2.30767914       0.00920115      -1.91555637      -2.30767914       0.00920115      -1.91555637
8
Properties=species:S:1:pos:R:3:DFT_forces:R:3:forces:R:3 DFT_energy=-118.604237685514 energy=-118.604237685514 pbc="F F F"
H        0.00000000       0.00000000       0.00000000      -1.76337395       1.63794399       3.92216395      -1.76337395       1.63794399       3.92216395
H       -0.80967394      -0.67336795       0.09266475       0.56166990       0.77669438       0.03012683       0.56166990       0.77669438       0.03012683
H        0.98673134      -0.30253114      -0.24323101       3.03836649      -0.71700000       0.28979649       3.03836649      -0.71700000       0.28979649
H        0.11791074      -0.26776420       1.04147367      -0.26123733       0.07864050      -2.39523868      -0.26123733       0.07864050      -2.39523868
H       -0.00767307      -0.73033916      -0.82879153      -0.29136246      -3.76058883      -1.79553992      -0.29136246      -3.76058883      -1.79553992
H       -0.39227907       0.84088323      -0.67514969      -0.12715313       1.86607127       0.21414633      -0.12715313       1.86607127       0.21414633
H        0.80957128       0.71033521      -0.48373200      -0.51470303       0.87345024       0.93898480      -0.51470303       0.87345024       0.93898480
H        0.19658880      -0.02430035      -1.26913576      -0.64220650      -0.75521154      -1.20443979      -0.64220650      -0.75521154      -1.20443979
8
Properties=species:S:1:pos:R:3:DFT_forces:R:3:forces:R:3 DFT_energy=-115.238270301399 energy=-115.238270301399 pbc="F F F"
H        0.00000000       0.00000000       0.00000000      -4.90138416       2.98373704      -0.86629071      -4.90138416       2.98373704      -0.86629071
H        0.22215388      -0.06349597      -0.79132049      -0.41039068      -1.90591660      -5.83839032      -0.41039068      -1.90591660      -5.83839032
H        0.21006483      -0.83761238       0.35214097      -8.42185656      -6.57670557       5.30257802      -8.42185656      -6.57670557       5.30257802
H        0.30703391       0.85811376       0.29831307       2.05871354       2.30081674       3.22472720       2.05871354       2.30081674       3.22472720
H       -0.77425981       0.58013698      -0.26696461       2.22776536      -1.25461873       0.46732134       2.22776536      -1.25461873       0.46732134
H        0.77305488      -0.74459467       0.01322308       9.07522488      -1.04928034      -7.83850457       9.07522488      -1.04928034      -7.83850457
H       -0.24103017      -0.63329071       0.92705973      -3.70186442      -0.06058497       3.63824680      -3.70186442      -0.06058497       3.63824680
H        1.11345129      -0.11202099       0.38515105       4.07379204       5.56255243       1.91031225       4.07379204       5.56255243       1.91031225
8
Properties=species:S:1:pos:R:3:DFT_forces:R:3:forces:R:3 DFT_energy=-118.229772113767 energy=-118.229772113767 pbc="F F F"
H        0.00000000       0.00000000       0.00000000      -2.52920793       4.43712103       1.37629030      -2.52920793       4.43712103       1.37629030
H       -0.11694287      -0.77610664       0.43755018      -1.56459021      -1.76507030       1.79945507      -1.56459021      -1.76507030       1.79945507
H       -0.30021387       0.66291246      -0.77753542      -1.47678873      -0.22195612       0.67992389      -1.47678873      -0.22195612       0.67992389
H        0.69449164       0.42466471      -0.76155586       1.45927783       0.39327263      -1.25105787       1.45927783       0.39327263      -1.25105787
H        0.74823065      -0.32742787      -1.02414206       2.75712699      -1.78543784      -1.10724935       2.75712699      -1.78543784      -1.10724935
H        1.08822065      -0.64252697       0.35446935       2.29344452       1.53164370      -0.23974775       2.29344452       1.53164370      -0.23974775
H        0.30905484       1.03595065       0.80181407       0.19860412      -2.15909400      -0.41445740       0.19860412      -2.15909400      -0.41445740
H       -0.11345612      -1.38345338      -0.08255164      -1.13786659      -0.43047909      -0.84315689      -1.13786659      -0.43047909      -0.84315689
8
Properties=species:S:1:pos:R:3:DFT_forces:R:3:forces:R:3 DFT_energy=-117.299800801979 energy=-117.299800801979 pbc="F F F"
H        0.00000000       0.00000000       0.00000000       4.45485614       1.26016269       3.60963013       4.45485614       1.26016269       3.60963013
H        0.58769363      -0.49404937       0.59405963       0.25411363       1.32715335      -0.40577161       0.25411363       1.32715335      -0.40577161
H       -0.82389822       0.43284632      -0.30147173      -1.17073240       5.61148281      -1.70716298      -1.17073240       5.61148281      -1.70716298
H        0.81983150       0.09789831      -0.57489283      -0.65316393      -0.24947229       0.84697220      -0.65316393      -0.24947229       0.84697220
H       -0.94996887      -0.51214723      -0.17877194      -1.79347054      -5.90962760      -1.02072053      -1.79347054      -5.90962760      -1.02072053
H       -0.94601116       0.01428831       0.67810514       0.60125530      -0.80646316      -0.69411981       0.60125530      -0.80646316      -0.69411981
H       -0.23806730       0.46600404      -1.10827171      -0.04158606       2.12071881       0.23618231      -0.04158606       2.12071881       0.23618231
H        0.12217379      -0.72846429      -1.01315634      -1.65127215      -3.35395461      -0.86500970      -1.65127215      -3.35395461      -0.86500970
8
Properties=species:S:1:pos:R:3:DFT_forces:R:3:forces:R:3 DFT_energy=-116.261762561242 energy=-116.261762561242 pbc="F F F"
H        0.00000000       0.00000000       0.00000000       0.88517861       1.11084294       5.02423778       0.88517861       1.11084294       5.02423778
H        0.65319359      -0.09762790      -0.48013783       3.93172355       1.53571873      -0.17259838       3.93172355       1.53571873      -0.17259838
H        0.86189156      -0.02423102       0.34435202       1.60164196       2.85106751       3.22867355       1.60164196       2.85106751       3.22867355
H       -0.38727993       0.43410470      -0.75881789      -1.26115150       1.61693593      -3.54905226      -1.26115150       1.61693593      -3.54905226
H       -0.79836066       0.05783907       0.70907682       0.27420737      -2.76441934       1.61863615       0.27420737      -2.76441934       1.61863615
H        0.00695233      -1.02911738       0.51109575      -2.10751753      -2.75127627       0.63775059      -2.10751753      -2.75127627       0.63775059
H        0.28990180      -0.37208566      -1.18034300      -3.94862541      -2.65700105      -5.01067343      -3.94862541      -2.65700105      -5.01067343
H       -1.21555233       0.45117067       0.10458235       0.62454294       1.05813155      -1.77697401       0.62454294       1.05813155      -1.77697401
8
Properties=species:S:1:pos:R:3:DFT_forces:R:3:forces:R:3 DFT_energy=-118.068129721319 energy=-118.068129721319 pbc="F F F"
H        0.00000000       0.00000000       0.00000000      -0.01789494       0.13207247       2.74594234      -0.01789494       0.13207247       2.74594234
H        0.81778570       0.11541408      -0.44933760       3.54367324      -0.57530566      -0.48333401       3.54367324      -0.57530566      -0.48333401
H       -0.43749779       0.19499704       0.84222998      -1.54990973       0.55618844       0.47769395      -1.54990973       0.55618844       0.47769395
H       -0.91177233      -0.37701654      -0.18533056      -1.21194496      -1.44308492       1.02087297      -1.21194496      -1.44308492       1.02087297
H        0.86001563      -0.08406509       0.88578709      -0.77057995       0.44642431      -2.84677376      -0.77057995       0.44642431      -2.84677376
H       -0.32691510       0.07301640      -1.22767843       0.92322167       1.61051139       0.76879619       0.92322167       1.61051139       0.76879619
H       -0.17319970      -1.31526943      -0.33314351      -0.35839451       1.12630458      -0.95872155      -0.35839451       1.12630458      -0.95872155
H       -0.11756783       1.22736780      -0.69196535      -0.55817083      -1.85311061      -0.72447613      -0.55817083      -1.85311061      -0.72447613
8
Properties=species:S:1:pos:R:3:DFT_forces:R:3:forces:R:3 DFT_energy=-118.679716362901 energy=-118.679716362901 pbc="F F F"
H        0.00000000       0.00000000       0.00000000       1.20882865      -3.31961174       1.05361085       1.20882865      -3.31961174       1.05361085
H       -0.43990502       0.29943492       0.72518974       2.14497945       0.97589874       3.36692890       2.14497945       0.97589874       3.36692890
H        0.39931659      -0.92426674      -0.06430561      -0.42359299      -3.68990061       0.47831330      -0.42359299      -3.68990061       0.47831330
H        0.70705378       0.43429997      -0.63760562       1.78072120       3.61017089      -2.73557097       1.78072120       3.61017089      -2.73557097
H       -0.83484108       0.16427195      -0.84605858      -1.25450153       1.18006859      -0.92789613      -1.25450153       1.18006859      -0.92789613
H       -1.17733780      -0.37817649      -0.31242570       0.26245567       0.05686969      -0.64447825       0.26245567       0.05686969      -0.64447825