32
Lattice="8.1 0.0 0.0 0.0 8.1 0.0 0.0 0.0 8.1" Properties=species:S:1:pos:R:3:momenta:R:3:future_positions:R:3:future_momenta:R:3:energies:R:1:forces:R:3 energy=1.3663630701795944 free_energy=1.3663630701795944 stress="0.007073949522760805 0.00019329194170044156 0.00015007897568108982 0.00019329194170044156 0.0039374125017276685 -0.0002866300847021666 0.00015007897568108982 -0.0002866300847021666 0.0028598946397896327" pbc="T T T"
Al      -0.15265155      -0.06915760       0.03097033      -0.58091722      -1.29056082      -0.00146864      -0.14218820      -0.18562623       0.03595276       0.84051531      -0.63873612       0.05603086       0.01537216       0.35220952      -0.02909257       0.07303192
Al      -0.07145948       1.93129580       2.15101868       1.61528557       0.23030980      -0.36686852       0.13099407       1.94306257       2.07062868       1.67648105       0.05267683      -0.99053144       0.02819333       0.43386745      -0.10736877      -0.32533218
Al       2.16987258      -0.05723266       1.98209562       0.76569277       1.75569460       0.82893347       2.11517082       0.06816552       2.05161176      -1.61373817       0.17798819       0.36994366       0.07316373      -0.80719301      -0.11958673      -0.02489796
Al       1.90886976       1.90565691       0.04334437       0.69845032      -0.36860005      -0.14838287       1.97552573       1.86265792      -0.00801656       0.37478327      -0.42528329      -0.97414253       0.02153982       0.06000116       0.00381912      -0.07634347
Al      -0.03829768      -0.13812040       4.08275667       1.33998928       0.98352179      -1.67938042       0.13578120      -0.02392767       3.91266608       1.64986958       1.20364902      -1.10972351       0.03954778       0.25050069      -0.02583734      -0.15662632
Al      -0.02030480       1.65086049       5.98063521      -0.84776035       1.47586807      -0.18307042      -0.11450696       1.86065266       5.98553715      -0.70665897       1.97561169       0.28549093       0.04188544      -0.14315321       0.59048098       0.14691784
Al       2.10034169      -0.08102083       6.08197742      -0.73117833      -1.93318082      -0.93048310       1.99597645      -0.27670068       6.00994591      -1.27803606      -1.22172478      -0.17029776       0.01306139      -0.03362133      -0.17313341       0.04080664
Al       2.14560159       1.88378276       4.06928162       0.33745396       1.84392850       1.09776411       2.14223817       2.08581031       4.18721870      -0.41899870       1.56551119       0.87848832      -0.00298356      -0.21835426       0.17729511       0.06176911
Al       0.05679865       4.00902409       0.11706134       0.40108718      -0.21840383      -0.49239347       0.04475933       3.98414214       0.08769761      -0.57710698      -0.16907125      -0.06093599       0.06050273      -0.33217338      -0.06273085       0.09352615
Al       0.05462269       5.93241094       2.10170251      -0.46124209       0.88708706       1.64522275      -0.00660115       6.04702954       2.23110905      -0.38125630       0.89654855       0.49434587       0.02224451      -0.26118857       0.31885734      -0.11387531
Al       1.91685332       4.00631318       2.05399967      -0.37032923       0.02426303      -0.77730818       1.94350761       3.97700035       1.99593748       0.73979323      -0.30040626      -0.14827942       0.03388683       0.44466536      -0.36075938       0.04429719
Al       2.11021643       6.02180574       0.12075440      -0.17449161      -1.08343652      -0.58086820       2.06281306       5.92470997       0.01700513      -0.68305274      -0.47718651      -1.08309180       0.01420954      -0.18803133      -0.05725302      -0.42748183
Al      -0.05863118       3.83537499       4.06799080       1.24614107       0.04521552       0.37297512       0.07130852       3.85298682       4.10149974       0.81473825       0.28067750       0.12995173       0.04385782       0.18182995       0.10924444       0.02754730
Al      -0.15953785       6.02480637       6.14005390      -0.09973636      -0.88251037      -0.32084392      -0.09660768       6.01244625       6.10199137       1.05196081       0.39164507      -0.32921552       0.05529906       0.50169653       0.54936589      -0.01857306
Al       1.84136014       3.88425215       6.24108298      -0.18063712      -0.67170764       0.24072514       1.87729474       3.83502771       6.21426625       0.85932773      -0.11244090      -0.56772696       0.01255377       0.28812920       0.07975020      -0.37531902
Al       1.89751785       5.80891321       4.14087336      -0.50272087       0.36340570       1.13143117       1.87370756       5.86040713       4.26040603       0.19365923       0.33289117       0.72174115       0.02676314       0.08964382       0.26071223       0.16654502
Al       3.98691413       0.00634588      -0.02708734      -0.35585203       0.09748007      -0.06430851       3.99880883       0.01281505      -0.01913433       0.59583437      -0.11871899       0.05824228       0.03775130       0.24785933       0.06225564       0.22990779
Al       3.97644557       1.98580819       2.00246339      -1.87307173      -0.51184355      -0.40097476       3.81315966       1.95291555       1.95818490      -0.73747686       0.07954326      -0.19335117       0.03912460      -0.03699324      -0.01339504      -0.13684853
Al       6.12788069      -0.01059803       2.11182233       0.45355459      -0.60108664       0.30785302       6.10874558      -0.08416450       2.07595733      -0.77771055      -0.55743330      -0.84182429       0.05079203      -0.40388538      -0.19316736      -0.45243411
Al       6.08505226       2.09332552      -0.06657468      -0.44603559       0.83425822       0.87646748       6.06252499       2.11302214       0.07154121      -0.10135063      -0.53662932       1.43530007       0.02994437       0.24876395      -0.35666088       0.40639606
Al       3.83252483      -0.34333457       3.90237693      -1.26144092      -0.13354806       0.33040503       3.79664821      -0.28820981       4.01066420       0.63042965       1.06758493       1.34023188       0.08387862       0.52566828       0.47906580       0.57705437
Al       4.30163985       2.08350030       5.94301248      -0.98666154      -1.30643041      -0.69671803       4.11540330       1.94378473       5.91925008      -2.05153788      -1.35061178       0.55505262       0.09861033      -0.72120535       0.07385917       0.08122011
Al       5.80970998       0.04608094       6.14004859       2.02322152      -0.61672705      -1.06411283       6.08822217      -0.06476198       5.98497781       2.66245250      -1.19210663      -1.53824841       0.07922059       0.63489965      -0.42513276      -0.39262577
Al       5.90845666       1.95891361       3.80940408      -1.12110345      -0.59242549      -0.95595343       5.83399845       1.84246207       3.83836688      -0.11477054      -1.28142357       1.08787820       0.13857321       0.17627371      -0.43834433       1.03666828
Al       4.07128959       3.82669896      -0.07165873      -0.96996739       0.53425322       1.47554365       3.95910101       3.94047101       0.07626664      -0.87828280       1.30628808       0.95867265       0.02019157      -0.16134992       0.46958535       0.12511882
Al       4.07425154       5.92283443       2.04024631       0.74899497      -0.29045519       0.01147049       4.12428843       5.88380353       2.01771196      -0.02656699      -0.16720395      -0.21360921       0.04267983      -0.05259555      -0.19136461      -0.25627479
Al       6.01539788       3.85781977       2.17871864      -0.04617985       0.12029740       0.07957567       6.04231191       3.95470376       2.10173008       0.61921938       1.27438674      -1.14708890       0.06908930       0.12061574       0.71709512      -0.69103693
Al       6.04278206       6.08341245       0.11750476       0.40890864       0.30957357       0.41043163       6.06908560       6.05740159       0.15277305       0.02887625      -0.79680145       0.04615518       0.00997808      -0.04570931      -0.32044437       0.04717481
Al       4.01646501       4.03370179       4.09906848       1.03688159      -0.73412776      -0.04098793       4.11576607       3.99254596       4.10675551       0.72912593       0.08740546       0.15300958       0.02399031      -0.01054358       0.10251026       0.07956518
Al       4.19722880       6.00902796       6.11210145      -0.91562576       1.13755002      -0.46440515       4.07824284       6.06316872       6.07605464      -1.01892382      -0.19700508      -0.08930797       0.01591560      -0.27748539      -0.35967127       0.01946929
Al       6.44544816       4.02026103       6.13255211       0.11625826       0.18086819       0.46487632       6.30714076       3.99035830       6.15304894      -2.52249757      -0.51658394      -0.12302377       0.10197620      -0.90592661      -0.36400453      -0.13848565
Al       6.06550305       6.11397060       3.95900980       0.73303171       0.41146943      -0.10514667       6.13554117       6.09857353       4.00900148       0.42089902      -0.63304055       1.00986371       0.02554962       0.04278511      -0.39594943       0.32913903
32
Lattice="8.1 0.0 0.0 0.0 8.1 0.0 0.0 0.0 8.1" Properties=species:S:1:pos:R:3:momenta:R:3:future_positions:R:3:future_momenta:R:3:energies:R:1:forces:R:3 energy=1.16720709444472 free_energy=1.16720709444472 stress="0.005896403358519174 -0.0002522091224139071 0.001191063111796054 -0.0002522091224139071 0.004161952994044684 0.00012449067240387788 0.001191063111796054 0.00012449067240387788 0.004365845362242371" pbc="T T T"
Al      -0.14218820      -0.18562623       0.03595276      -0.84051531       0.63873612      -0.05603086      -0.15265155      -0.06915760       0.03097033       0.58091722       1.29056082       0.00146864       0.01752550       0.47384578       0.37349019       0.00081384
Al       0.13099407       1.94306257       2.07062868      -1.67648105      -0.05267683       0.99053144      -0.07145948       1.93129580       2.15101868      -1.61528557      -0.23030980       0.36686852       0.02320229      -0.39350679       0.03265167      -0.09479828
Al       2.11517082       0.06816552       2.05161176       1.61373817      -0.17798819      -0.36994366       2.16987258      -0.05723266       1.98209562      -0.76569277      -1.75569460      -0.82893347       0.10458925      -0.47327378      -0.82243823      -0.21006310
Al       1.97552573       1.86265792      -0.00801656      -0.37478327       0.42528329       0.97414253       1.90886976       1.90565691       0.04334437      -0.69845032       0.36860005       0.14838287       0.03804866      -0.22403983      -0.01477731      -0.41928931
Al       0.13578120      -0.02392767       3.91266608      -1.64986958      -1.20364902       1.10972351      -0.03829768      -0.13812040       4.08275667      -1.33998928      -0.98352179       1.67938042       0.03988526      -0.15316908       0.14433298       0.50163613
Al      -0.11450696       1.86065266       5.98553715       0.70665897      -1.97561169      -0.28549093      -0.02030480       1.65086049       5.98063521       0.84776035      -1.47586807       0.18307042       0.02375561       0.19026398      -0.17948282       0.18119575
Al       1.99597645      -0.27670068       6.00994591       1.27803606       1.22172478       0.17029776       2.10034169      -0.08102083       6.08197742       0.73117833       1.93318082       0.93048310       0.05017185      -0.21062796       0.67589151       0.45956404
Al       2.14223817       2.08581031       4.18721870       0.41899870      -1.56551119      -0.87848832       2.14560159       1.88378276       4.06928162      -0.33745396      -1.84392850      -1.09776411       0.04304777      -0.24850464      -0.39572510      -0.30027398
Al       0.04475933       3.98414214       0.08769761       0.57710698       0.16907125       0.06093599       0.05679865       4.00902409       0.11706134      -0.40108718       0.21840383       0.49239347       0.03604770      -0.24471665       0.07479572       0.07230462
Al      -0.00660115       6.04702954       2.23110905       0.38125630      -0.89654855      -0.49434587       0.05462269       5.93241094       2.10170251       0.46124209      -0.88708706      -1.64522275       0.03923609       0.27206615      -0.28971714      -0.56464795
Al       1.94350761       3.97700035       1.99593748      -0.73979323       0.30040626       0.14827942       1.91685332       4.00631318       2.05399967       0.37032923      -0.02426303       0.77730818       0.02990180       0.21682252       0.14670797       0.32200121
Al       2.06281306       5.92470997       0.01700513       0.68305274       0.47718651       1.08309180       2.11021643       6.02180574       0.12075440       0.17449161       1.08343652       0.58086820       0.00687335      -0.16518570       0.37688094       0.05367534
Al       0.07130852       3.85298682       4.10149974      -0.81473825      -0.28067750      -0.12995173      -0.05863118       3.83537499       4.06799080      -1.24614107      -0.04521552      -0.37297512       0.03625758      -0.45572535       0.10815284      -0.18864225
Al      -0.09660768       6.01244625       6.10199137      -1.05196081      -0.39164507       0.32921552      -0.15953785       6.02480637       6.14005390       0.09973636       0.88251037       0.32084392       0.04419988       0.11582276       0.05030758       0.06667237
Al       1.87729474       3.83502771       6.21426625      -0.85932773       0.11244090       0.56772696       1.84136014       3.88425215       6.24108298       0.18063712       0.67170764      -0.24072514       0.03983783       0.32938932       0.31813558      -0.05602893
Al       1.87370756       5.86040713       4.26040603      -0.19365923      -0.33289117      -0.72174115       1.89751785       5.80891321       4.14087336       0.50272087      -0.36340570      -1.13143117       0.06072666       0.34828268      -0.22857138      -0.49732664
Al       3.99880883       0.01281505      -0.01913433      -0.59583437       0.11871899      -0.05824228       3.98691413       0.00634588      -0.02708734       0.35585203      -0.09748007       0.06430851       0.00613726       0.29132256      -0.20935824      -0.06996100
Al       3.81315966       1.95291555       1.95818490       0.73747686      -0.07954326       0.19335117       3.97644557       1.98580819       2.00246339       1.87307173       0.51184355       0.40097476       0.08207773       0.68112093       0.29075461       0.27285962
Al       6.10874558      -0.08416450       2.07595733       0.77771055       0.55743330       0.84182429       6.12788069      -0.01059803       2.11182233      -0.45355459       0.60108664      -0.30785302       0.04897944      -0.34833409       0.17161303      -0.21444155
Al       6.06252499       2.11302214       0.07154121       0.10135063       0.53662932      -1.43530007       6.08505226       2.09332552      -0.06657468       0.44603559      -0.83425822      -0.87646748       0.00844681      -0.00615240      -0.48464760      -0.02749326
Al       3.79664821      -0.28820981       4.01066420      -0.63042965      -1.06758493      -1.34023188       3.83252483      -0.34333457       3.90237693       1.26144092       0.13354806      -0.33040503       0.05129288       0.58241853       0.33160539      -0.00878088
Al       4.11540330       1.94378473       5.91925008       2.05153788       1.35061178      -0.55505262       4.30163985       2.08350030       5.94301248       0.98666154       1.30643041       0.69671803       0.03981103       0.03097936      -0.08461002       0.64153478
Al       6.08822217      -0.06476198       5.98497781      -2.66245250       1.19210663       1.53824841       5.80970998       0.04608094       6.14004859      -2.02322152       0.61672705       1.06411283       0.02345748      -0.17935942       0.01879841       0.09194872
Al       5.83399845       1.84246207       3.83836688       0.11477054       1.28142357      -1.08787820       5.90845666       1.95891361       3.80940408       1.12110345       0.59242549       0.95595343       0.04583228       0.43183675       0.05342988       0.29093400
Al       3.95910101       3.94047101       0.07626664       0.87828280      -1.30628808      -0.95867265       4.07128959       3.82669896      -0.07165873       0.96996739      -0.53425322      -1.47554365       0.02620135       0.24372309      -0.01187082      -0.43090151
Al       4.12428843       5.88380353       2.01771196       0.02656699       0.16720395       0.21360921       4.07425154       5.92283443       2.04024631      -0.74899497       0.29045519      -0.01147049       0.03387600      -0.43093642       0.30584720       0.15087284
Al       6.04231191       3.95470376       2.10173008      -0.61921938      -1.27438674       1.14708890       6.01539788       3.85781977       2.17871864       0.04617985      -0.12029740      -0.07957567       0.02167381       0.27264079       0.00103331      -0.03931678
Al       6.06908560       6.05740159       0.15277305      -0.02887625       0.79680145      -0.04615518       6.04278206       6.08341245       0.11750476      -0.40890864      -0.30957357      -0.41043163       0.03204365      -0.12873897      -0.33152575      -0.32548044
Al       4.11576607       3.99254596       4.10675551      -0.72912593      -0.08740546      -0.15300958       4.01646501       4.03370179       4.09906848      -1.03688159       0.73412776       0.04098793       0.01781083      -0.12829904       0.30962827       0.02531151
Al       4.07824284       6.06316872       6.07605464       1.01892382       0.19700508       0.08930797       4.19722880       6.00902796       6.11210145       0.91562576      -1.13755002       0.46440515       0.01949550       0.20189637      -0.45910789       0.22645447
Al       6.30714076       3.99035830       6.15304894       2.52249757       0.51658394       0.12302377       6.44544816       4.02026103       6.13255211      -0.11625826      -0.18086819      -0.46487632       0.04599954      -0.68548170       0.00746065      -0.20451855
Al       6.13554117       6.09857353       4.00900148      -0.42089902       0.63304055      -1.00986371       6.06550305       6.11397060       3.95900980      -0.73303171      -0.41146943       0.10514667       0.03076440      -0.20637973      -0.27968541       0.29418518
32
Lattice="8.1 0.0 0.0 0.0 8.1 0.0 0.0 0.0 8.1" Properties=species:S:1:pos:R:3:momenta:R:3:future_positions:R:3:future_momenta:R:3:energies:R:1:forces:R:3 energy=1.3491586149753863 free_energy=1.3491586149753863 stress="0.004547076650069058 0.0013669771473251372 0.001163927777111702 0.0013669771473251372 0.003861737458132709 0.000201403866273606 0.001163927777111702 0.000201403866273606 0.003376485753719811" pbc="T T T"
Al       0.05013264      -0.11037390       0.05983541       1.41747919      -0.39367039      -0.47629973       0.14707138      -0.12928308       0.00594836       0.12513974       0.16791179      -0.35702733      -0.00225273      -0.16753864       0.08310906      -0.11388650
Al      -0.21030403       1.89534404       2.19488184       0.22071510      -0.31081215       0.47648995      -0.12241250       1.88497035       2.21548573       1.24766533       0.06472955      -0.09424204       0.05802222       0.46176805       0.18742838      -0.21898340
Al       1.89108496       0.14324831       2.12148909      -1.65530685      -1.52005877       0.33153139       1.75254724      -0.10478742       2.10373051      -0.64240751      -2.55962141      -0.60303687       0.09274239       0.08367784      -0.80863818      -0.34885039
Al       2.10337798       2.03824502       0.22782319      -0.16789199      -1.23378665      -1.40746992       2.04229219       1.90909316       0.06921646      -0.83281253      -0.97785607      -1.24615180       0.02561018      -0.31853307      -0.08767725      -0.25314746
Al      -0.15855526      -0.29993167       4.16072672       0.15729508       0.63918184       0.84942823      -0.14072594      -0.14346340       4.20377986       0.20950501       1.73452662      -0.11380985       0.07402572      -0.00777028       0.81250718      -0.21643040
Al       0.17132561       1.90202881       6.04090984       0.33147284      -1.42748695      -0.52861991       0.10814931       1.78551867       6.02090093      -1.33878687      -0.62766890       0.20348971       0.02321275      -0.62605125       0.17285955       0.19309160
Al       1.98608149      -0.01651354       6.17033039       0.29936735      -0.56970460       1.08717519       2.06943237      -0.10404385       6.23876667       1.23273575      -0.92752326      -0.09978989       0.03193090       0.24087795      -0.20008236      -0.11184840
Al       1.92746569       1.82736176       3.99741741      -0.18229002      -0.08230183       0.54693087       1.95409155       1.83879857       4.05690676       0.66435150       0.21264778       0.38587895       0.06745849       0.24965868       0.19432887       0.14340251
Al      -0.02512802       3.91296381       0.08312409       0.13188222      -0.89700430      -0.29642312       0.02839787       3.83914110       0.02475421       0.79712024      -0.30364512      -0.57637486       0.01281922       0.22071101       0.02442337      -0.26902579
Al      -0.14828361       5.92526389       2.06570345       0.02676919       0.30451520       0.62250009      -0.12357144       5.98266207       2.09868753       0.47281277       0.59126134      -0.07332377       0.02437636       0.11229998       0.20894004      -0.15030803
Al       1.88738562       4.06301941       2.11678953       0.69729155       0.44745596       0.82900446       2.02639530       4.07068488       2.11968866       1.49477629      -0.44384027      -0.74495059       0.08417090       0.57135824      -0.13565507      -0.46574342
Al       2.04481892       5.92791005      -0.08848301       0.11370652      -0.13984534      -0.23423275       2.03912069       5.91987710      -0.05497579      -0.16531845      -0.03188948       0.97117791       0.00962713      -0.12458429       0.06411887       0.26036775
Al       0.20463702       3.99445954       3.98172121       0.41970036       0.44214536       0.71700902       0.14942320       4.03298962       4.13860133      -1.13781138       0.23651033       1.80735301       0.06247923      -0.73528961      -0.03441092       0.62344972
Al      -0.02053801       6.01617166       6.01176912       0.04347359       1.76802597       1.71860054       0.01466053       6.15645538       6.23716589       0.45551883       0.71572867       1.96040453       0.05329639       0.23384265      -0.26472928       0.48763321
Al       2.17234382       3.79375515       6.01128716      -1.21142749      -0.14990423       0.77708280       1.95729680       3.87044646       6.10606931      -2.53243721       1.40124738       0.81228494       0.06931202      -0.54104189       0.59611025       0.17610385
Al       1.92614464       6.22137256       3.97900483       0.65952162      -0.70016332      -1.03019736       2.05152383       6.10663131       3.90942577       1.25214154      -1.32572148       0.08811018       0.03664455       0.53675388      -0.31156726       0.02611401
Al       3.97547593      -0.06846705       0.13902438      -0.00709413       1.11581134      -0.20833525       3.98951551      -0.00951307       0.05780951       0.26807502       0.07437649      -1.06101230       0.03485416       0.08818762      -0.41023958      -0.45844796
Al       4.25432781       1.66565519       1.99616690      -0.03555252       0.94581096       0.12092747       4.16794351       1.90169282       2.02836949      -1.42519809       2.97342735       0.33944655       0.13794797      -0.51622164       0.97451222       0.19092509
Al       6.18915514      -0.06796114       2.06688571      -0.71490129       0.30179464      -1.79142357       6.10528602      -0.09390665       1.87804357      -0.75522243      -0.43531601      -1.42025266       0.07138146      -0.12720283      -0.50534499      -0.12159801
Al       6.06544989       2.00604050       0.04684885       0.70510724       0.86644928      -0.63573046       6.13935484       2.05257322      -0.09363157       0.49808018      -0.03344602      -1.67068459       0.02849018       0.08543471      -0.26244349      -0.55276648
Al       4.13056362       0.02485999       3.99674351      -0.66304266      -0.75694738      -1.03138095       4.02239543      -0.12038750       3.92280618      -1.10132834      -1.58512216      -0.29312450       0.04280359      -0.31930590      -0.50798615       0.19356503
Al       3.93284116       1.93085661       6.06204843      -0.95383994       1.46201994      -0.67717174       3.90558662       2.04515939       6.01870504       0.37155774       0.55193590      -0.13791253       0.04676462       0.43970561      -0.14799578       0.20427799
Al       5.95550070      -0.01785842       6.09142191      -0.22894906       0.10931859      -0.99106730       5.93799103      -0.03074562       6.04219230      -0.21928592      -0.47578402       0.13051688       0.00069976       0.15777485      -0.08322613       0.29126827
Al       5.98415256       1.97911517       4.09609218      -0.84261188      -0.80121849       0.90815687       5.95408288       1.92951921       4.22406401       0.25529312      -0.11702330       1.14462471       0.03164668       0.35526191       0.21268416       0.34058094
Al       3.98745609       3.96086108       0.06507475      -0.19442409       0.44787323      -2.29036072       4.01077298       3.99724076      -0.16120273       0.64130496       0.13058027      -1.51698176       0.02493064       0.21067936      -0.02748192      -0.10842022
Al       4.25663313       5.90083225       2.01259585      -1.16786049       0.64015076       0.26607899       4.06457462       6.00074965       2.05278982      -2.06369523       0.96254168       0.24335375       0.03254274      -0.54994465       0.35132579       0.18839445
Al       6.05676850       3.85692862       1.98491701       1.59170077      -0.36417717       1.05355529       6.19742254       3.86022972       2.13244811       0.82691736       0.39776059       1.36316351       0.04619702      -0.02855892       0.22209978       0.36257354
Al       6.07060925       5.93301021       0.00043462      -0.77099709       0.66805541       0.91371059       5.99277582       6.02979227       0.06666278      -0.58937230       0.84999799       0.25573155       0.01915558      -0.01949399       0.28574768      -0.17737193
Al       3.90703933       3.85391565       3.94454540       0.18124243       0.37433376       0.42052877       3.95846137       3.91012368       3.99203696       0.71117947       0.66199860       0.56436651       0.00947170       0.22111908       0.09440368      -0.05364476
Al       3.95769932       6.01839559       5.92665317      -0.45789202      -1.39511318       0.76532823       3.92244836       5.88051953       6.03134169      -0.02705808      -0.96270652       0.90576398       0.01431226      -0.02673065      -0.02527981       0.29404308
Al       6.15897511       4.10737518       6.07769356       1.52530449       1.23734780      -0.35236577       6.28002022       4.13606451       6.05072812       0.64649589      -0.60644079      -0.05649582       0.03663835      -0.25734756      -0.64672160       0.00667027
Al       5.97352524       5.91884962       4.14713101       0.73205196      -1.02809531      -0.45296019       6.05583810       5.83193110       4.05129200       0.66006359      -0.31357754      -1.11049549       0.04784617       0.09650374      -0.02511911      -0.36198819
32
Lattice="8.1 0.0 0.0 0.0 8.1 0.0 0.0 0.0 8.1" Properties=species:S:1:pos:R:3:momenta:R:3:future_positions:R:3:future_momenta:R:3:energies:R:1:forces:R:3 energy=0.9805180626948236 free_energy=0.9805180626948236 stress="0.006329580169302034 4.4542363124300345e-05 -0.0006187970078163774 4.4542363124300345e-05 0.0050124359990860266 -0.00023958697472461666 -0.0006187970078163774 -0.00023958697472461666 0.004949752457188458" pbc="T T T"
Al       0.14707138      -0.12928308       0.00594836      -0.12513974      -0.16791179       0.35702733       0.05013264      -0.11037390       0.05983541      -1.41747919       0.39367039       0.47629973       0.07122046      -0.62018529       0.31954811       0.18438812
Al      -0.12241250       1.88497035       2.21548573      -1.24766533      -0.06472955       0.09424204      -0.21030403       1.89534404       2.19488184      -0.22071510       0.31081215      -0.47648995       0.02927420       0.19073843       0.08416420      -0.20582644
Al       1.75254724      -0.10478742       2.10373051       0.64240751       2.55962141       0.60303687       1.89108496       0.14324831       2.12148909       1.65530685       1.52005877      -0.33153139       0.06201531       0.56502710       0.12078248      -0.23893178
Al       2.04229219       1.90909316       0.06921646       0.83281253       0.97785607       1.24615180       2.10337798       2.03824502       0.22782319       0.16789199       1.23378665       1.40746992       0.01547909      -0.08054606       0.22270565       0.25164552
Al      -0.14072594      -0.14346340       4.20377986      -0.20950501      -1.73452662       0.11380985      -0.15855526      -0.29993167       4.16072672      -0.15729508      -0.63918184      -0.84942823       0.02978871       0.05940069      -0.13981253      -0.34184041
Al       0.10814931       1.78551867       6.02090093       1.33878687       0.62766890      -0.20348971       0.17132561       1.90202881       6.04090984      -0.33147284       1.42748695       0.52861991       0.02938415      -0.32920223       0.33359530       0.27066312