32
Lattice="8.1 0.0 0.0 0.0 8.1 0.0 0.0 0.0 8.1" Properties=species:S:1:pos:R:3:momenta:R:3:future_positions:R:3:future_momenta:R:3:energies:R:1:forces:R:3 energy=0.8948308788199846 free_energy=0.8948308788199846 stress="0.00582921114852916 0.000442369304973728 0.0011759981285591327 0.000442369304973728 0.004847050505392154 1.8183467986477127e-06 0.0011759981285591327 1.8183467986477127e-06 0.007675243103858247" pbc="T T T"
Al       0.16464029       0.00846807       0.08508833      -0.51435652      -1.29123021      -0.40577065       0.06123463      -0.13595049       0.07731856      -1.12368820      -1.14173022       0.32159375       0.02624888      -0.43303143      -0.16939770       0.17687361
Al       0.04333576       2.12405991       2.14636843       0.32093878      -0.17299006       1.71382084       0.06562479       2.10857776       2.28688450      -0.03325533      -0.03348663       0.72445134      -0.00221246       0.00546396      -0.03608654      -0.18260135
Al       2.21922479       0.20052938       2.21911130      -0.44642369       0.68326702      -0.86115870       2.10411598       0.19875347       2.10572830      -1.45828161      -0.77836419      -1.04256479       0.03444733      -0.51126629      -0.40563433      -0.22658428
Al       1.96155048       2.02748026      -0.04177685       0.96270926      -0.14683668       2.36933351       2.07343613       2.03409454       0.21257465       0.87860336       0.18665112       1.78096908       0.03471748       0.21428015       0.19684797       0.35198798
Al       0.05568839       0.05574736       4.18671791       0.06245496       0.81230955      -0.20747444       0.06765827       0.10043852       4.11442519      -0.00327411      -0.12717917      -1.13769447       0.03523763       0.14215879      -0.15572925      -0.23576948
Al      -0.13186583       1.98855492       6.20781636       0.22280189      -1.60667901      -1.21899781      -0.09891252       1.85903274       6.09773601       0.49242377      -0.48907979      -0.62171015       0.02370026      -0.01704901       0.05339132      -0.03220987
Al       2.03621737       0.09348554       6.20878227      -0.11797775      -0.45796433      -0.25441550       2.04174920      -0.00219866       6.16899661       0.14285863      -0.95547093      -0.35848765       0.03794931       0.12529531      -0.50020256      -0.16476891
Al       1.94284613       1.98171088       4.32022368      -0.11779476       0.99420017       0.01357815       1.98680439       2.11439821       4.26497106       0.92095190       1.32594662      -0.91399551       0.05025639       0.32354246       0.19859126      -0.39892430
Al      -0.03643397       4.06958069      -0.08827052      -0.87775289      -0.23551193      -1.08274508      -0.12164270       4.03738893      -0.14312537      -0.49788673      -0.37859298       0.01252870       0.01644881      -0.05787561       0.00822122       0.41571657
Al      -0.00276283       6.07523118       2.26506718      -0.08348851      -1.25362582       0.10228474       0.01270856       5.94288617       2.18829289       0.26251117      -0.99075759      -1.46067169       0.02998422       0.20385822      -0.10906399      -0.51252453
Al       2.03395119       4.06067541       1.99971494       0.10277670       0.14604391      -0.61824753       2.02947851       4.06920737       1.96448282      -0.03548154      -0.07999657       0.19416636       0.02826364      -0.21588698       0.05715279       0.03450527
Al       1.98925195       6.07039489       0.13152820      -0.70107353      -0.86590020       0.12070077       1.94248161       5.99823209       0.12004608      -0.12069101      -0.36317825      -0.36952856       0.00976045       0.14688968       0.06222498      -0.11347800
Al       0.09824214       3.96907265       4.23344143      -1.10674903       1.42633014       0.74990889      -0.02406983       4.10656556       4.26687676      -1.00051381       0.85934586      -0.07518529       0.02755296      -0.10461418       0.07870897      -0.31515772
Al       0.12009291       5.93594422       6.01046922      -1.18594847       0.30481321      -0.29021400       0.01409687       6.01670929       6.01936247      -0.62232620       1.02709759       0.47965827       0.02709685       0.02595310       0.35991925       0.20568057
Al       2.17590269       3.96699525       6.18607872       1.82666693       0.88078720       0.01094781       2.31621025       4.10654665       6.18066021       0.51549710       1.49197521      -0.08331562       0.03066521      -0.16477845       0.36717608      -0.07313241
Al       2.11661542       6.14055183       4.02959445      -1.21684111       0.18480678       0.01285619       1.99885366       6.16084043       4.05270339      -0.78737459       0.07326348       0.35179917       0.01482222      -0.05129393       0.08802409       0.16252990
Al       4.08197493       0.10490606       0.17085796       1.18346222       0.39760916      -0.36612355       4.19092003       0.13248906       0.08093809       0.61699589       0.09336852      -1.26574518       0.01022865       0.01600799      -0.07344046      -0.29331826
Al       3.93645088       2.18854557       2.09631276       1.82853584      -1.42156010       0.59584715       4.14907873       2.00771831       2.17584454       1.73625133      -1.65709058       0.77212338       0.05895968       0.28880840      -0.31079094       0.11048325
Al       6.22340708       0.06013780       2.05279540      -1.24895018       0.55835249      -0.97816458       6.08747412       0.10501728       1.95480608      -0.94397278       0.14753550      -0.52447199       0.02477423      -0.20011305      -0.03687653      -0.14529374
Al       6.02132034       2.07641943       0.14100884       0.65846298       0.04825727       0.02423917       6.14091227       2.06706350       0.11684310       1.45056452      -0.18007649      -0.52704098       0.02479758       0.29892593      -0.11730661      -0.11169449
Al       4.18660823      -0.00242056       4.12764259      -0.01325988      -0.40875091      -0.61885377       4.14992585      -0.03770428       4.06126252      -0.56901563      -0.18660433      -0.46420485       0.02748321      -0.28348925       0.01573260      -0.08948531
Al       4.09333604       1.99813612       6.08092681       0.40479253       1.09617456      -0.45695243       4.16603783       2.07017504       6.04884325       0.74864192       0.03050378      -0.02498149       0.00968249       0.27257342      -0.11621141       0.05646164
Al       6.23948472      -0.22255063       6.05928214       1.59323678      -0.41493906       1.09744752       6.33990711      -0.19936221       6.21256097      -0.07209436       0.78147382       1.34706809       0.04886645      -0.21504796       0.45884785       0.45930897
Al       6.09879426       1.89696639       4.07909200      -0.70948079       1.25639048       0.10789133       6.02790682       2.05765944       4.11081737      -0.39377453       1.39654577       0.50055116       0.02507895      -0.05684998       0.34628181       0.09833994
Al       4.15353887       3.98323517      -0.00693228       0.07234339      -0.91889267       0.42736080       4.13333436       3.92650157       0.06146214      -0.32182670      -0.09386815       0.87097930       0.03166976      -0.23582388       0.21337205       0.08628749
Al       4.13836479       6.07840665       1.93039247      -0.65108121       0.29673392       0.30647594       4.03241715       6.12659693       1.99383823      -1.21564110       0.47432752       0.76998567       0.02564584      -0.23677724       0.16515317       0.23204498
Al       5.91356098       4.05332772       2.30407210      -0.11207184      -0.57732050      -0.43473224       6.00009513       3.99166004       2.18735879       1.52404557      -0.43452393      -1.67790947       0.04651277       0.65974572      -0.07548183      -0.39155185
Al       6.04952230       6.03040117       0.00447251      -0.69510041       0.14983012       0.70220847       6.03184281       6.04602950       0.10751122       0.23359967       0.03041771       1.11755336       0.02607780       0.41601265       0.07073372       0.19255014
Al       3.90492926       4.15165660       4.00534018       1.40576279      -0.78672061       0.03995367       4.05583797       4.06899126       4.06876345       1.18275263      -0.50712983       0.81502571       0.05153768       0.15003627      -0.14429056       0.51414408
Al       4.07173410       6.18254887       6.19658769      -0.49226230       1.23361909       0.07352391       4.00532367       6.28118217       6.18870997      -0.47037602       0.49815600      -0.18710539       0.00176712      -0.22482859      -0.16464236      -0.11230117
Al       6.02614131       4.07344579       5.98266586      -0.63584207       0.56407956       0.72323350       5.95129296       4.14512639       6.05337693      -0.64565669       0.77230350       0.62910140      -0.01167201      -0.08023362       0.05346028      -0.05969545
Al       6.11856558       6.19884837       3.97257857       0.28150990      -0.47468254      -1.39776206       6.11209593       6.11582640       3.89617986      -0.39056651      -0.79178237       0.04705835       0.06848149      -0.20059260      -0.37868432       0.36157672
32
Lattice="8.1 0.0 0.0 0.0 8.1 0.0 0.0 0.0 8.1" Properties=species:S:1:pos:R:3:momenta:R:3:future_positions:R:3:future_momenta:R:3:energies:R:1:forces:R:3 energy=0.9775593220180188 free_energy=0.9775593220180188 stress="0.00561896524110683 0.00010955929300027058 0.0005917793502733804 0.00010955929300027058 0.004925564335948191 0.0001104654741423019 0.0005917793502733804 0.0001104654741423019 0.00593663920646172" pbc="T T T"
Al       0.06123463      -0.13595049       0.07731856       1.12368820       1.14173022      -0.32159375       0.16464029       0.00846807       0.08508833       0.51435652       1.29123021       0.40577065       0.02598423       0.06720061       0.25551433       0.28941604
Al       0.06562479       2.10857776       2.28688450       0.03325533       0.03348663      -0.72445134       0.04333576       2.12405991       2.14636843      -0.32093878       0.17299006      -1.71382084       0.02256491      -0.22565110       0.11432577      -0.45364058
Al       2.10411598       0.19875347       2.10572830       1.45828161       0.77836419       1.04256479       2.21922479       0.20052938       2.21911130       0.44642369      -0.68326702       0.86115870       0.03250304      -0.12232050      -0.53465264       0.10968291
Al       2.07343613       2.03409454       0.21257465      -0.87860336      -0.18665112      -1.78096908       1.96155048       2.02748026      -0.04177685      -0.96270926       0.14683668      -2.36933351       0.03670059      -0.20199496       0.03991207      -0.65029019
Al       0.06765827       0.10043852       4.11442519       0.00327411       0.12717917       1.13769447       0.05568839       0.05574736       4.18671791      -0.06245496      -0.81230955       0.20747444       0.03628151      -0.17114302      -0.41222499      -0.27086310
Al      -0.09891252       1.85903274       6.09773601      -0.49242377       0.48907979       0.62171015      -0.13186583       1.98855492       6.20781636      -0.22280189       1.60667901       1.21899781       0.05391302       0.20809381       0.59019410       0.31097807
Al       2.04174920      -0.00219866       6.16899661      -0.14285863       0.95547093       0.35848765       2.03621737       0.09348554       6.20878227       0.11797775       0.45796433       0.25441550       0.01213505      -0.02215628       0.16967770       0.06344988
Al       1.98680439       2.11439821       4.26497106      -0.92095190      -1.32594662       0.91399551       1.94284613       1.98171088       4.32022368       0.11779476      -0.99420017      -0.01357815       0.01865606       0.31303686      -0.02240909      -0.18621893
Al      -0.12164270       4.03738893      -0.14312537       0.49788673       0.37859298      -0.01252870      -0.03643397       4.06958069      -0.08827052       0.87775289       0.23551193       1.08274508       0.01028514       0.31481548      -0.04290457       0.28606025
Al       0.01270856       5.94288617       2.18829289      -0.26251117       0.99075759       1.46067169      -0.00276283       6.07523118       2.26506718       0.08348851       1.25362582      -0.10228474       0.03642072       0.00160227       0.24928412      -0.40906695
Al       2.02947851       4.06920737       1.96448282       0.03548154       0.07999657      -0.19416636       2.03395119       4.06067541       1.99971494      -0.10277670      -0.14604391       0.61824753       0.03527415       0.07754863      -0.12299194       0.46552486
Al       1.94248161       5.99823209       0.12004608       0.12069101       0.36317825       0.36952856       1.98925195       6.07039489       0.13152820       0.70107353       0.86590020      -0.12070077       0.03370322       0.22262050       0.24402805      -0.18565889
Al      -0.02406983       4.10656556       4.26687676       1.00051381      -0.85934586       0.07518529       0.09824214       3.96907265       4.23344143       1.10674903      -1.42633014      -0.74990889       0.03694843       0.16340137      -0.37375743      -0.19319468
Al       0.01409687       6.01670929       6.01936247       0.62232620      -1.02709759      -0.47965827       0.12009291       5.93594422       6.01046922       1.18594847      -0.30481321       0.29021400       0.06765257       0.28591903       0.07279401       0.25629675
Al       2.31621025       4.10654665       6.18066021      -0.51549710      -1.49197521       0.08331562       2.17590269       3.96699525       6.18607872      -1.82666693      -0.88078720      -0.01094781       0.03913992      -0.61868554      -0.00577420      -0.01350206
Al       1.99885366       6.16084043       4.05270339       0.78737459      -0.07326348      -0.35179917       2.11661542       6.14055183       4.02959445       1.21684111      -0.18480678      -0.01285619       0.00425755       0.25499548      -0.14281365       0.04460780
Al       4.19092003       0.13248906       0.08093809      -0.61699589      -0.09336852       1.26574518       4.08197493       0.10490606       0.17085796      -1.18346222      -0.39760916       0.36612355       0.02757163      -0.36567294      -0.10165634      -0.24845931
Al       4.14907873       2.00771831       2.17584454      -1.73625133       1.65709058      -0.77212338       3.93645088       2.18854557       2.09631276      -1.82853584       1.42156010      -0.59584715       0.05028353      -0.37036750       0.16837018      -0.06963989
Al       6.08747412       0.10501728       1.95480608       0.94397278      -0.14753550       0.52447199       6.22340708       0.06013780       2.05279540       1.24895018      -0.55835249       0.97816458       0.03575680       0.38855109      -0.26863586       0.41829455
Al       6.14091227       2.06706350       0.11684310      -1.45056452       0.18007649       0.52704098       6.02132034       2.07641943       0.14100884      -0.65846298      -0.04825727      -0.02423917       0.03669586       0.13526855      -0.05052286      -0.22414578
Al       4.14992585      -0.03770428       4.06126252       0.56901563       0.18660433       0.46420485       4.18660823      -0.00242056       4.12764259       0.01325988       0.40875091       0.61885377       0.01061884      -0.10696225       0.11600464       0.18260704
Al       4.16603783       2.07017504       6.04884325      -0.74864192      -0.03050378       0.02498149       4.09333604       1.99813612       6.08092681      -0.40479253      -1.09617456       0.45695243       0.02857475      -0.07814720      -0.49425034       0.26260027
Al       6.33990711      -0.19936221       6.21256097       0.07209436      -0.78147382      -1.34706809       6.23948472      -0.22255063       6.05928214      -1.59323678       0.41493906      -1.09744752       0.07280774      -0.82921050       0.33606149      -0.26767690
Al       6.02790682       2.05765944       4.11081737       0.39377453      -1.39654577      -0.50055116       6.09879426       1.89696639       4.07909200       0.70948079      -1.25639048      -0.10789133       0.04101935       0.32693833      -0.22536169       0.15011873
Al       4.13333436       3.92650157       0.06146214       0.32182670       0.09386815      -0.87097930       4.15353887       3.98323517      -0.00693228      -0.07234339       0.91889267      -0.42736080       0.02816260      -0.00405970       0.27124079       0.16760924
Al       4.03241715       6.12659693       1.99383823       1.21564110      -0.47432752      -0.76998567       4.13836479       6.07840665       1.93039247       0.65108121      -0.29673392      -0.30647594       0.00215586      -0.09098616      -0.05117162       0.05839465
Al       6.00009513       3.99166004       2.18735879      -1.52404557       0.43452393       1.67790947       5.91356098       4.05332772       2.30407210       0.11207184       0.57732050       0.43473224       0.03399237       0.33102920       0.15723171      -0.33119674
Al       6.03184281       6.04602950       0.10751122      -0.23359967      -0.03041771      -1.11755336       6.04952230       6.03040117       0.00447251       0.69510041      -0.14983012      -0.70220847       0.00997002       0.14757047      -0.13376238       0.05685800
Al       4.05583797       4.06899126       4.06876345      -1.18275263       0.50712983      -0.81502571       3.90492926       4.15165660       4.00534018      -1.40576279       0.78672061      -0.03995367       0.02750048      -0.21361793       0.30143009      -0.08016059
Al       4.00532367       6.28118217       6.18870997       0.47037602      -0.49815600       0.18710539       4.07173410       6.18254887       6.19658769       0.49226230      -1.23361909      -0.07352391       0.02729147       0.27109491      -0.31810102      -0.05656443
Al       5.95129296       4.14512639       6.05337693       0.64565669      -0.77230350      -0.62910140       6.02614131       4.07344579       5.98266586       0.63584207      -0.56407956      -0.72323350       0.01327066       0.09816123       0.09290604       0.05317744
Al       6.11209593       6.11582640       3.89617986       0.39056651       0.79178237      -0.04705835       6.11856558       6.19884837       3.97257857      -0.28150990       0.47468254       1.39776206       0.02946727      -0.18687223       0.12201556       0.46460257
32
Lattice="8.1 0.0 0.0 0.0 8.1 0.0 0.0 0.0 8.1" Properties=species:S:1:pos:R:3:momenta:R:3:future_positions:R:3:future_momenta:R:3:energies:R:1:forces:R:3 energy=0.8431874507022643 free_energy=0.8431874507022643 stress="0.006244031443369388 0.0007165788141183207 -0.0001627289267088679 0.0007165788141183207 0.005467715397826384 0.00047222160456977303 -0.0001627289267088679 0.00047222160456977303 0.0065578157468693605" pbc="T T T"
Al       0.00264000       0.07844353      -0.12467518      -0.24833940      -0.96183864       0.49485711      -0.00613836      -0.01402459      -0.02917609       0.11464281      -0.61415357       1.04937503       0.02354378       0.07510104      -0.00840324       0.37378042
Al       0.01973625       1.94453284       2.07781540      -1.14858181       0.43868461       0.26323310      -0.06034934       1.99671851       2.07559403      -0.06503116       0.39052762      -0.24704382       0.01148113       0.05369455       0.09880419      -0.20381966
Al       2.12606659      -0.00311886       2.19972208       0.41302172      -0.56223045      -0.78333704       2.16448074      -0.04161635       2.08799427       0.27800815       0.11297422      -1.05153068       0.01817628      -0.04086683      -0.06843728      -0.30666921
Al       2.08365382       1.99498282       0.09681029       0.06882021       0.63561182       0.23612025       2.06579896       2.08443873       0.08890775      -0.32866700       0.89063479      -0.32704702       0.00011097      -0.18451322       0.18586768      -0.22949960
Al       0.12624551       0.03061316       4.28957870      -0.65159606       0.30279168      -0.14250778       0.01688464       0.02731380       4.25777021      -1.11169736      -0.18773383      -0.34981465       0.02738317      -0.41340684      -0.31632109      -0.16491883
Al      -0.12317083       1.98438986       6.08615311      -0.68033828      -1.02831320       0.81904355      -0.13183977       1.92300711       6.19473968       0.38176425       0.04409683       1.08051663       0.07402757       0.51180957       0.15316222       0.16612647
Al       2.21175225      -0.05970562       6.17702698       1.71592151      -0.01437753       0.71618332       2.33255833      -0.03585943       6.20959721       0.16274206       0.29935664      -0.22485442       0.01697825      -0.15226446       0.25002542      -0.16014115
Al       1.89525038       2.00666748       4.05656774      -0.19076047       1.70309258       0.77182852       1.93014534       2.15094689       4.16742316       0.67201897       0.56694128       1.13024239       0.03364249       0.44639722       0.06190913       0.26114939
Al       0.06324146       4.13002584       0.21584986      -2.29720152      -0.73838022       0.28813726      -0.15219333       4.02591028       0.20765365      -1.23671285      -1.01266081      -0.62514988       0.01526475      -0.04390983      -0.24796852      -0.14860606
Al      -0.03568176       6.33257459       2.11146462      -0.42398127       1.76229272       0.33760784      -0.07002781       6.45271076       2.14810086      -0.14533080       0.17006376       0.39452288      -0.00237100       0.05110291      -0.25026777      -0.04388833
Al       2.10471123       4.07299382       2.11509901       0.47122512       0.43019454       0.05486540       2.11829867       4.14627541       2.10388427      -0.29998206       0.77682088      -0.38295811       0.01438037      -0.14629987       0.20813554       0.00577124
Al       1.97633693       6.14574144       0.04358988      -1.05480691       0.28916459       1.55234288       1.90811728       6.14999876       0.22260918      -0.17152022      -0.35306556       1.41560132       0.01932936       0.25472308      -0.06090382       0.23382698
Al       0.05576764       4.07998668       4.01400335       0.57940655      -0.69956036      -0.77452503       0.08668458       4.01869212       3.92835072      -0.17503553      -0.25442022      -0.69464186       0.01526375      -0.04964464      -0.03080400      -0.05355566
Al       0.02355291       5.97583815       6.21389775       1.29498290      -1.18774745      -1.11923094       0.15227294       5.91293447       6.07765261       0.83971435       0.19996515      -1.17915732       0.03685764       0.07105344       0.27335028      -0.22054127
Al       2.03002194       4.09589495       5.96428476      -1.40614172       0.07190351       0.68383253       1.89204490       4.05702037       6.10583172      -0.78217195      -0.76552063       1.83558429       0.02500748      -0.18326424      -0.28465803       0.43550242
Al       2.10294141       6.13517588       4.16052368       0.37528798       0.06546951      -1.32171616       2.12907650       6.12170770       4.01699769       0.07558778      -0.25067742      -1.03910889       0.02080381      -0.08017251      -0.15558951      -0.18798561
Al       4.05154633       0.04180795       0.09587695       0.65312298      -0.02520858      -1.44851649       4.11018101      -0.00892605      -0.00370261       0.47925477      -0.82387382      -0.06336589       0.03791563      -0.11142811      -0.33346680       0.10579317
Al       3.99463169       2.11178591       2.08298854      -0.76972578       0.43303785       1.45166045       3.92031111       2.12118979       2.21012431      -0.46042768      -0.30497609       0.66557543       0.04547036      -0.02623818      -0.15264150       0.00397004
Al       6.06752037       0.16677762       2.13683865       0.78676613       0.52003149      -0.55703345       6.12683194       0.12611308       2.05526672       0.04974244      -1.11123483      -0.86262203       0.05797723       0.02567701      -0.60535123      -0.15552347
Al       5.86666543       1.98359002       0.13390663       0.14656181       0.34355113       1.00219990       5.94749354       2.06926988       0.20344323       1.06654883       1.03497871       0.17235924       0.03670554       0.54268980       0.34223721      -0.17161289
Al       4.16577409       0.00121745       4.10194437       1.27315080       0.00074655      -0.12617867       4.26403075      -0.00106685       4.08963455       0.44919701      -0.14322398      -0.23043618       0.01149277      -0.17588287       0.06046008       0.09255009
Al       4.07582143       2.12841289       6.08245812       1.38235068      -2.27850567      -0.84858267       4.19026486       1.88563097       6.03156973       0.57677380      -1.58734033      -0.07971653       0.02925887      -0.11131245      -0.33460233       0.22692870
Al       5.98796219       0.06005076       6.14967933      -0.30947349       0.38719007       1.15895734       5.98875373       0.07194356       6.22854943       0.59269769      -0.40128101       0.30465130       0.02411334       0.04497396      -0.01868090      -0.27046677
Al       6.06100384       2.05139366       3.94813839      -0.49745219      -0.04888184      -0.80333862       6.06592325       2.06154953       3.94251448       0.55104434       0.29164259       0.63815221       0.05209771       0.33987961       0.02698787       0.48412612
Al       3.98653190       4.16133100      -0.02674004       0.73984761       0.38361114      -0.54089747       4.07643916       4.17447757      -0.05548456       0.74131189      -0.16140478      -0.03102748       0.01030857       0.16089545      -0.14489250       0.22158812
Al       4.20417461       5.98448795       2.23233022      -0.20346446      -0.31251847       0.04086883       4.17099734       5.99067130       2.19698932      -0.23762055       0.42943188      -0.68889399       0.00680334      -0.18787453       0.23188721      -0.23712622
Al       6.10462315       4.08037294       2.06163275       0.38894279       0.29950384      -1.10535613       6.12924789       4.11675117       1.96135721      -0.17956907       0.39845727      -0.28799727       0.01783917       0.05689690      -0.00826779      -0.15578421
Al       6.09358588       6.26490740      -0.03882978       0.91781049      -1.07153163       0.44265129       6.17717319       6.10261802       0.04548933       0.55468604      -1.63616333       0.85314067       0.02017304      -0.05987567      -0.42047706       0.36560357
Al       4.10680770       3.82744588       4.14546261      -0.81027804      -0.44715914       0.36296012       4.02050430       3.89795647       4.17643776      -0.67074170       1.63304057       0.32819991       0.06887453      -0.05253364       0.72242265      -0.15967413
Al       4.11682929       5.93532890       6.08322235       0.81699115       0.44743862      -0.34601489       4.19368248       6.01081999       6.04143619       0.35039176       0.86499219      -0.32412669       0.02209869       0.09430284       0.22566179      -0.06844949
Al       6.30009733       3.91190767       6.18755949      -1.39862320       0.96217439      -1.09305327       6.09853461       4.03300185       6.08106214      -1.90717822       0.93747738      -0.80260399       0.04093503      -0.55378817       0.34079773       0.04585371
Al       6.19758956       5.96463840       4.22287004       0.06655417      -0.10023746       0.33293893       6.18804712       5.99231814       4.22843248      -0.16444078       0.56632849      -0.37582460       0.01124382      -0.15592133       0.26002436      -0.08430789
32
Lattice="8.1 0.0 0.0 0.0 8.1 0.0 0.0 0.0 8.1" Properties=species:S:1:pos:R:3:momenta:R:3:future_positions:R:3:future_momenta:R:3:energies:R:1:forces:R:3 energy=1.199462930854991 free_energy=1.199462930854991 stress="0.004767208885128757 0.0018557943876572078 0.0006883010676196985 0.0018557943876572078 0.0037451877241799847 0.00010112084390507357 0.0006883010676196985 0.00010112084390507357 0.005853968447125383" pbc="T T T"
Al      -0.00613836      -0.01402459      -0.02917609      -0.11464281       0.61415357      -1.04937503       0.00264000       0.07844353      -0.12467518       0.24833940       0.96183864      -0.49485711       0.03349547       0.13631418       0.22371231      -0.02665473
Al      -0.06034934       1.99671851       2.07559403       0.06503116      -0.39052762       0.24704382       0.01973625       1.94453284       2.07781540       1.14858181      -0.43868461      -0.26323310       0.03069566       0.54953215      -0.15485292      -0.09515438
Al       2.16448074      -0.04161635       2.08799427      -0.27800815      -0.11297422       1.05153068       2.12606659      -0.00311886       2.19972208      -0.41302172       0.56223045       0.78333704       0.02903386      -0.07183026       0.43753749       0.11822710
Al       2.06579896       2.08443873       0.08890775       0.32866700      -0.89063479       0.32704702       2.08365382       1.99498282       0.09681029      -0.06882021      -0.63561182      -0.23612025      -0.01261383      -0.05041681      -0.04377495      -0.12021375
Al       0.01688464       0.02731380       4.25777021       1.11169736       0.18773383       0.34981465       0.12624551       0.03061316       4.28957870       0.65159606      -0.30279168       0.14250778       0.00959253       0.06685513       0.02610194       0.01406195
Al      -0.13183977       1.92300711       6.19473968      -0.38176425      -0.04409683      -1.08051663      -0.12317083       1.98438986       6.08615311       0.68033828       1.02831320      -0.81904355       0.02594094       0.22847308       0.43171417      -0.01594792