2
pbc=[T, T, T] runtime_s=39.50984928 Ecut=18.00000000 dft_energy=-230.15645479 tol=0.00000100 dft_energy_error=0.00065679 dataset=si_tiny_run2 kpoints_mp_grid=[11, 11, 11] structure_id=2 Lattice="3.93551400 0.00000000 0.00000000 1.96707400 3.25657400 0.00000000 1.72837500 1.08562300 3.06191700" Properties=species:S:1:pos:R:3:dft_force:R:3:pseudopotential:S:1:velocities:R:3:Z:I:1
Si         0.00000000       0.00000000       0.00000000        -0.79754993       4.48613254       4.53004116   si_tiny/Si.upf         0.00000000       0.00000000       0.00000000         14
Si         1.93079748       1.11474625       0.78824460         0.79754930      -4.48613295      -4.53004159   si_tiny/Si.upf         0.00000000       0.00000000       0.00000000         14
2
pbc=[T, T, T] runtime_s=30.76384595 Ecut=18.00000000 dft_energy=-230.15849138 tol=0.00000100 dft_energy_error=0.00066388 dataset=si_tiny_run2 kpoints_mp_grid=[11, 11, 11] structure_id=3 Lattice="3.86745100 0.00000000 0.00000000 1.90342700 3.24092400 0.00000000 1.72393300 1.06735300 3.25666600" Properties=species:S:1:pos:R:3:dft_force:R:3:pseudopotential:S:1:velocities:R:3:Z:I:1
Si         0.00000000       0.00000000       0.00000000         2.33538021       6.49392508      -1.94168900   si_tiny/Si.upf         0.00000000       0.00000000       0.00000000         14
Si         1.93079670       1.11474656       0.78824344        -2.33537990      -6.49392504       1.94168920   si_tiny/Si.upf         0.00000000       0.00000000       0.00000000         14
2
pbc=[T, T, T] runtime_s=24.43833514 Ecut=18.00000000 dft_energy=-230.04577158 tol=0.00000100 dft_energy_error=0.00067923 dataset=si_tiny_run2 kpoints_mp_grid=[11, 11, 11] structure_id=4 Lattice="4.05300900 0.00000000 0.00000000 1.93570900 3.23054800 0.00000000 1.85724400 0.96302800 3.03223300" Properties=species:S:1:pos:R:3:dft_force:R:3:pseudopotential:S:1:velocities:R:3:Z:I:1
Si         0.00000000       0.00000000       0.00000000        -4.30615060       5.88982827       5.59535259   si_tiny/Si.upf         0.00000000       0.00000000       0.00000000         14
Si         1.93079559       1.11474490       0.78824413         4.30615149      -5.88982761      -5.59535312   si_tiny/Si.upf         0.00000000       0.00000000       0.00000000         14
2
pbc=[T, T, T] runtime_s=27.45836807 Ecut=18.00000000 dft_energy=-230.15409952 tol=0.00000100 dft_energy_error=0.00065845 dataset=si_tiny_run2 kpoints_mp_grid=[11, 11, 11] structure_id=5 Lattice="3.79292700 0.00000000 0.00000000 1.82708500 3.35690500 0.00000000 1.67878100 1.05013400 3.26853100" Properties=species:S:1:pos:R:3:dft_force:R:3:pseudopotential:S:1:velocities:R:3:Z:I:1
Si         0.00000000       0.00000000       0.00000000         6.68601476       2.14574765      -1.72653502   si_tiny/Si.upf         0.00000000       0.00000000       0.00000000         14
Si         1.93079552       1.11474502       0.78824547        -6.68601302      -2.14574586       1.72653633   si_tiny/Si.upf         0.00000000       0.00000000       0.00000000         14
2
pbc=[T, T, T] runtime_s=24.87854644 Ecut=18.00000000 dft_energy=-230.13257716 tol=0.00000100 dft_energy_error=0.00066273 dataset=si_tiny_run2 kpoints_mp_grid=[10, 11, 11] structure_id=6 Lattice="4.07191900 0.00000000 0.00000000 1.89175000 3.32827300 0.00000000 1.85538000 1.18850400 3.07242000" Properties=species:S:1:pos:R:3:dft_force:R:3:pseudopotential:S:1:velocities:R:3:Z:I:1
Si         0.00000000       0.00000000       0.00000000        -4.28054230      -0.63854757       2.93962629   si_tiny/Si.upf         0.00000000       0.00000000       0.00000000         14
Si         1.93079676       1.11474537       0.78824471         4.28054948       0.63854559      -2.93962841   si_tiny/Si.upf         0.00000000       0.00000000       0.00000000         14
2
pbc=[T, T, T] runtime_s=27.34760817 Ecut=18.00000000 dft_energy=-230.22594858 tol=0.00000100 dft_energy_error=0.00064957 dataset=si_tiny_run2 kpoints_mp_grid=[11, 11, 11] structure_id=7 Lattice="3.99378500 0.00000000 0.00000000 1.89963500 3.31699800 0.00000000 1.93535900 1.19248500 3.15789800" Properties=species:S:1:pos:R:3:dft_force:R:3:pseudopotential:S:1:velocities:R:3:Z:I:1
Si         0.00000000       0.00000000       0.00000000        -3.71108948      -0.32754245      -1.06962413   si_tiny/Si.upf         0.00000000       0.00000000       0.00000000         14
Si         1.93079697       1.11474557       0.78824292         3.71109582       0.32754012       1.06962387   si_tiny/Si.upf         0.00000000       0.00000000       0.00000000         14
2
pbc=[T, T, T] runtime_s=30.11491637 Ecut=18.00000000 dft_energy=-230.23694887 tol=0.00000100 dft_energy_error=0.00064989 dataset=si_tiny_run2 kpoints_mp_grid=[11, 11, 11] structure_id=8 Lattice="3.85426800 0.00000000 0.00000000 1.85671500 3.32496800 0.00000000 1.83156400 1.11008100 3.24305500" Properties=species:S:1:pos:R:3:dft_force:R:3:pseudopotential:S:1:velocities:R:3:Z:I:1
Si         0.00000000       0.00000000       0.00000000         2.34078261       1.79307350      -1.93684494   si_tiny/Si.upf         0.00000000       0.00000000       0.00000000         14
Si         1.93079700       1.11474607       0.78824398        -2.34078386      -1.79307365       1.93684346   si_tiny/Si.upf         0.00000000       0.00000000       0.00000000         14
2
pbc=[T, T, T] runtime_s=28.31426250 Ecut=18.00000000 dft_energy=-230.20685627 tol=0.00000100 dft_energy_error=0.00066067 dataset=si_tiny_run2 kpoints_mp_grid=[12, 11, 11] structure_id=9 Lattice="3.73629000 0.00000000 0.00000000 1.90878600 3.30097800 0.00000000 2.03143800 1.10754200 3.12848100" Properties=species:S:1:pos:R:3:dft_force:R:3:pseudopotential:S:1:velocities:R:3:Z:I:1
Si         0.00000000       0.00000000       0.00000000         2.47544041       0.08521843      -0.63637498   si_tiny/Si.upf         0.00000000       0.00000000       0.00000000         14
Si         1.91066948       1.10312537       0.78002730        -2.47544039      -0.08521830       0.63637460   si_tiny/Si.upf         0.00000000       0.00000000       0.00000000         14
2
pbc=[T, T, T] runtime_s=24.09039656 Ecut=18.00000000 dft_energy=-230.18229999 tol=0.00000100 dft_energy_error=0.00064748 dataset=si_tiny_run2 kpoints_mp_grid=[12, 11, 11] structure_id=10 Lattice="3.75683700 0.00000000 0.00000000 2.10177200 3.28727100 0.00000000 2.04860800 1.09700600 3.11959600" Properties=species:S:1:pos:R:3:dft_force:R:3:pseudopotential:S:1:velocities:R:3:Z:I:1
Si         0.00000000       0.00000000       0.00000000        -0.53479462      -0.81134672      -1.55277013   si_tiny/Si.upf         0.00000000       0.00000000       0.00000000         14
Si         1.91067141       1.10312598       0.78002690         0.53479400       0.81134700       1.55276970   si_tiny/Si.upf         0.00000000       0.00000000       0.00000000         14
2
pbc=[T, T, T] runtime_s=22.49610066 Ecut=18.00000000 dft_energy=-230.13680221 tol=0.00000100 dft_energy_error=0.00064749 dataset=si_tiny_run2 kpoints_mp_grid=[11, 11, 11] structure_id=11 Lattice="3.80313200 0.00000000 0.00000000 2.17103800 3.32850100 0.00000000 1.97726400 1.17274100 3.28935500" Properties=species:S:1:pos:R:3:dft_force:R:3:pseudopotential:S:1:velocities:R:3:Z:I:1
Si         0.00000000       0.00000000       0.00000000        -3.08757546      -4.06470074      -7.62634062   si_tiny/Si.upf         0.00000000       0.00000000       0.00000000         14
Si         1.91066952       1.10312584       0.78002778         3.08757266       4.06469890       7.62634234   si_tiny/Si.upf         0.00000000       0.00000000       0.00000000         14
2
pbc=[T, T, T] runtime_s=26.14250648 Ecut=18.00000000 dft_energy=-230.16749902 tol=0.00000100 dft_energy_error=0.00066716 dataset=si_tiny_run2 kpoints_mp_grid=[11, 11, 11] structure_id=12 Lattice="3.74198600 0.00000000 0.00000000 1.81193500 3.33476900 0.00000000 1.89131300 1.14382800 3.04208400" Properties=species:S:1:pos:R:3:dft_force:R:3:pseudopotential:S:1:velocities:R:3:Z:I:1
Si         0.00000000       0.00000000       0.00000000         4.64076029      -0.55073578       4.68443323   si_tiny/Si.upf         0.00000000       0.00000000       0.00000000         14
Si         1.91067176       1.10312654       0.78002684        -4.64076033       0.55073576      -4.68443359   si_tiny/Si.upf         0.00000000       0.00000000       0.00000000         14
2
pbc=[T, T, T] runtime_s=24.04221429 Ecut=18.00000000 dft_energy=-230.12209416 tol=0.00000100 dft_energy_error=0.00066712 dataset=si_tiny_run2 kpoints_mp_grid=[11, 11, 11] structure_id=13 Lattice="3.94674500 0.00000000 0.00000000 1.92083700 3.23715300 0.00000000 1.90434700 1.25594400 3.29121000" Properties=species:S:1:pos:R:3:dft_force:R:3:pseudopotential:S:1:velocities:R:3:Z:I:1
Si         0.00000000       0.00000000       0.00000000        -4.31488481       1.18719614      -6.38753563   si_tiny/Si.upf         0.00000000       0.00000000       0.00000000         14
Si         1.91067036       1.10312767       0.78002664         4.31488528      -1.18719680       6.38753587   si_tiny/Si.upf         0.00000000       0.00000000       0.00000000         14
2
pbc=[T, T, T] runtime_s=24.60796588 Ecut=18.00000000 dft_energy=-229.96780209 tol=0.00000100 dft_energy_error=0.00066579 dataset=si_tiny_run2 kpoints_mp_grid=[12, 11, 11] structure_id=14 Lattice="3.62412200 0.00000000 0.00000000 2.14393000 3.40821900 0.00000000 1.97634600 1.18569800 3.05408400" Properties=species:S:1:pos:R:3:dft_force:R:3:pseudopotential:S:1:velocities:R:3:Z:I:1
Si         0.00000000       0.00000000       0.00000000         7.04849727      -4.61466019       1.89005515   si_tiny/Si.upf         0.00000000       0.00000000       0.00000000         14
Si         1.91067377       1.10312733       0.78002832        -7.04849939       4.61465960      -1.89005599   si_tiny/Si.upf         0.00000000       0.00000000       0.00000000         14
2
pbc=[T, T, T] runtime_s=20.85853699 Ecut=18.00000000 dft_energy=-230.18161721 tol=0.00000100 dft_energy_error=0.00064875 dataset=si_tiny_run2 kpoints_mp_grid=[11, 11, 11] structure_id=15 Lattice="3.83287700 0.00000000 0.00000000 1.91844500 3.40975200 0.00000000 2.15553800 1.25449900 3.09101000" Properties=species:S:1:pos:R:3:dft_force:R:3:pseudopotential:S:1:velocities:R:3:Z:I:1
Si         0.00000000       0.00000000       0.00000000        -3.29503864      -6.28422025      -1.95965441   si_tiny/Si.upf         0.00000000       0.00000000       0.00000000         14
Si         1.91067349       1.10312579       0.78002874         3.29503880       6.28422018       1.95965423   si_tiny/Si.upf         0.00000000       0.00000000       0.00000000         14
2
pbc=[T, T, T] runtime_s=20.90586500 Ecut=18.00000000 dft_energy=-230.18867702 tol=0.00000100 dft_energy_error=0.00064759 dataset=si_tiny_run2 kpoints_mp_grid=[11, 11, 11] structure_id=16 Lattice="3.84717500 0.00000000 0.00000000 2.12721200 3.35246000 0.00000000 2.06659400 1.06388800 3.23195300" Properties=species:S:1:pos:R:3:dft_force:R:3:pseudopotential:S:1:velocities:R:3:Z:I:1
Si         0.00000000       0.00000000       0.00000000        -5.42874289      -4.38983330      -6.74695360   si_tiny/Si.upf         0.00000000       0.00000000       0.00000000         14
Si         1.91067104       1.10312700       0.78002862         5.42874515       4.38983488       6.74695368   si_tiny/Si.upf         0.00000000       0.00000000       0.00000000         14
2
pbc=[T, T, T] runtime_s=22.64165740 Ecut=18.00000000 dft_energy=-230.15909264 tol=0.00000100 dft_energy_error=0.00065666 dataset=si_tiny_run2 kpoints_mp_grid=[11, 11, 11] structure_id=17 Lattice="3.75979900 0.00000000 0.00000000 2.03266100 3.34614200 0.00000000 1.95970500 1.09584500 3.29871500" Properties=species:S:1:pos:R:3:dft_force:R:3:pseudopotential:S:1:velocities:R:3:Z:I:1
Si         0.00000000       0.00000000       0.00000000         0.66947701      -2.20388769      -6.24898014   si_tiny/Si.upf         0.00000000       0.00000000       0.00000000         14
Si         1.91067100       1.10312529       0.78002734        -0.66947634       2.20388775       6.24898043   si_tiny/Si.upf         0.00000000       0.00000000       0.00000000         14
2
pbc=[T, T, T] runtime_s=24.76420795 Ecut=18.00000000 dft_energy=-230.03029508 tol=0.00000100 dft_energy_error=0.00064441 dataset=si_tiny_run2 kpoints_mp_grid=[11, 12, 11] structure_id=18 Lattice="3.82153400 0.00000000 0.00000000 2.02281400 3.22674900 0.00000000 2.16847700 1.37415300 3.02626800" Properties=species:S:1:pos:R:3:dft_force:R:3:pseudopotential:S:1:velocities:R:3:Z:I:1
Si         0.00000000       0.00000000       0.00000000        -4.91457801      -1.53640224      -1.18031194   si_tiny/Si.upf         0.00000000       0.00000000       0.00000000         14
Si         1.89292191       1.09287899       0.77278174         4.91457793       1.53640203       1.18031192   si_tiny/Si.upf         0.00000000       0.00000000       0.00000000         14
2
pbc=[T, T, T] runtime_s=26.83921037 Ecut=18.00000000 dft_energy=-230.19557457 tol=0.00000100 dft_energy_error=0.00065537 dataset=si_tiny_run2 kpoints_mp_grid=[11, 11, 11] structure_id=19 Lattice="3.77044900 0.00000000 0.00000000 1.74962600 3.41129800 0.00000000 2.02506100 1.07515200 3.16808500" Properties=species:S:1:pos:R:3:dft_force:R:3:pseudopotential:S:1:velocities:R:3:Z:I:1
Si         0.00000000       0.00000000       0.00000000         0.82096725      -4.63009829      -3.45606838   si_tiny/Si.upf         0.00000000       0.00000000       0.00000000         14
Si         1.89292321       1.09287896       0.77278147        -0.82096799       4.63009861       3.45606839   si_tiny/Si.upf         0.00000000       0.00000000       0.00000000         14
2
pbc=[T, T, T] runtime_s=28.61961291 Ecut=18.00000000 dft_energy=-230.19478974 tol=0.00000100 dft_energy_error=0.00064880 dataset=si_tiny_run2 kpoints_mp_grid=[11, 11, 11] structure_id=20 Lattice="3.79593200 0.00000000 0.00000000 1.75633100 3.37202900 0.00000000 1.85075900 0.90336300 3.08601700" Properties=species:S:1:pos:R:3:dft_force:R:3:pseudopotential:S:1:velocities:R:3:Z:I:1
Si         0.00000000       0.00000000       0.00000000         1.47307274      -1.16431570       1.04722431   si_tiny/Si.upf         0.00000000       0.00000000       0.00000000         14
Si         1.89292097       1.09288015       0.77278186        -1.47307364       1.16431458      -1.04722455   si_tiny/Si.upf         0.00000000       0.00000000       0.00000000         14
2
pbc=[T, T, T] runtime_s=28.51449645 Ecut=18.00000000 dft_energy=-230.04755433 tol=0.00000100 dft_energy_error=0.00064883 dataset=si_tiny_run2 kpoints_mp_grid=[12, 12, 11] structure_id=21 Lattice="3.82268000 0.00000000 0.00000000 1.88134800 3.21139300 0.00000000 2.26617600 1.12824400 3.03107800" Properties=species:S:1:pos:R:3:dft_force:R:3:pseudopotential:S:1:velocities:R:3:Z:I:1
Si         0.00000000       0.00000000       0.00000000        -4.01525365       1.36866972      -0.28340309   si_tiny/Si.upf         0.00000000       0.00000000       0.00000000         14
Si         1.89292215       1.09288030       0.77278243         4.01525384      -1.36866979       0.28340333   si_tiny/Si.upf         0.00000000       0.00000000       0.00000000         14
2
pbc=[T, T, T] runtime_s=26.97957108 Ecut=18.00000000 dft_energy=-229.97758740 tol=0.00000100 dft_energy_error=0.00065792 dataset=si_tiny_run2 kpoints_mp_grid=[11, 12, 11] structure_id=22 Lattice="3.71204900 0.00000000 0.00000000 1.68376100 3.17518100 0.00000000 2.03182500 1.13480000 3.02587500" Properties=species:S:1:pos:R:3:dft_force:R:3:pseudopotential:S:1:velocities:R:3:Z:I:1
Si         0.00000000       0.00000000       0.00000000         3.57129796       5.01094956       3.74496591   si_tiny/Si.upf         0.00000000       0.00000000       0.00000000         14
Si         1.89292285       1.09287927       0.77278427        -3.57129832      -5.01094989      -3.74496608   si_tiny/Si.upf         0.00000000       0.00000000       0.00000000         14
2
pbc=[T, T, T] runtime_s=29.78033437 Ecut=18.00000000 dft_energy=-230.09116696 tol=0.00000100 dft_energy_error=0.00067134 dataset=si_tiny_run2 kpoints_mp_grid=[11, 11, 11] structure_id=23 Lattice="3.65433500 0.00000000 0.00000000 1.74030400 3.31986100 0.00000000 1.73626800 1.16744300 3.16090200" Properties=species:S:1:pos:R:3:dft_force:R:3:pseudopotential:S:1:velocities:R:3:Z:I:1
Si         0.00000000       0.00000000       0.00000000         9.71948048      -1.03552065      -2.00485718   si_tiny/Si.upf         0.00000000       0.00000000       0.00000000         14
Si         1.89292283       1.09287871       0.77278364        -9.71948053       1.03552063       2.00485716   si_tiny/Si.upf         0.00000000       0.00000000       0.00000000         14
2
pbc=[T, T, T] runtime_s=22.68559853 Ecut=18.00000000 dft_energy=-230.10145083 tol=0.00000100 dft_energy_error=0.00065559 dataset=si_tiny_run2 kpoints_mp_grid=[11, 11, 11] structure_id=24 Lattice="3.87011100 0.00000000 0.00000000 2.12925700 3.33211000 0.00000000 1.54375100 1.23217800 3.20627900" Properties=species:S:1:pos:R:3:dft_force:R:3:pseudopotential:S:1:velocities:R:3:Z:I:1
Si         0.00000000       0.00000000       0.00000000        -2.09014975      -3.76895493      -5.31899333   si_tiny/Si.upf         0.00000000       0.00000000       0.00000000         14
Si         1.89292439       1.09287980       0.77278378         2.09014972       3.76895486       5.31899279   si_tiny/Si.upf         0.00000000       0.00000000       0.00000000         14
2
pbc=[T, T, T] runtime_s=29.55996328 Ecut=18.00000000 dft_energy=-230.10975239 tol=0.00000100 dft_energy_error=0.00064799 dataset=si_tiny_run2 kpoints_mp_grid=[11, 12, 11] structure_id=25 Lattice="3.79963300 0.00000000 0.00000000 1.76587500 3.20540800 0.00000000 1.60156300 1.15030900 3.12392700" Properties=species:S:1:pos:R:3:dft_force:R:3:pseudopotential:S:1:velocities:R:3:Z:I:1
Si         0.00000000       0.00000000       0.00000000         3.07898638       4.52517198      -0.78549243   si_tiny/Si.upf         0.00000000       0.00000000       0.00000000         14
Si         1.89292125       1.09287825       0.77278144        -3.07898624      -4.52517185       0.78549260   si_tiny/Si.upf         0.00000000       0.00000000       0.00000000         14
2
pbc=[T, T, T] runtime_s=25.28308087 Ecut=18.00000000 dft_energy=-230.20971184 tol=0.00000100 dft_energy_error=0.00066650 dataset=si_tiny_run2 kpoints_mp_grid=[11, 11, 11] structure_id=26 Lattice="3.76879400 0.00000000 0.00000000 1.82621500 3.25388400 0.00000000 1.81717100 1.07375000 3.11605000" Properties=species:S:1:pos:R:3:dft_force:R:3:pseudopotential:S:1:velocities:R:3:Z:I:1
Si         0.00000000       0.00000000       0.00000000         2.20510140       2.08418190      -0.30032682   si_tiny/Si.upf         0.00000000       0.00000000       0.00000000         14
Si         1.89292605       1.09288173       0.77278352        -2.20510149      -2.08418102       0.30032738   si_tiny/Si.upf         0.00000000       0.00000000       0.00000000         14
2
pbc=[T, T, T] runtime_s=16.87719790 Ecut=18.00000000 dft_energy=-227.91079527 tol=0.00000100 dft_energy_error=0.00097757 dataset=si_tiny_run2 kpoints_mp_grid=[16, 14, 12] structure_id=27 Lattice="2.03867400 -2.15884000 -1.21406200 -2.22414100 2.22159800 -1.66888100 2.18015800 2.11485700 1.55487000" Properties=species:S:1:pos:R:3:dft_force:R:3:pseudopotential:S:1:velocities:R:3:Z:I:1
Si         1.10554620      -0.16128625       1.08036032       -21.39821805      15.99493173      36.38869067   si_tiny/Si.upf         0.00000000       0.00000000       0.00000000         14
Si        -1.10554620       0.16128625      -1.08036032        21.39821805     -15.99493173     -36.38869067   si_tiny/Si.upf         0.00000000       0.00000000       0.00000000         14
2
pbc=[T, T, T] runtime_s=20.54369739 Ecut=18.00000000 dft_energy=-229.27298091 tol=0.00000100 dft_energy_error=0.00092139 dataset=si_tiny_run2 kpoints_mp_grid=[17, 17, 9] structure_id=28 Lattice="2.39477600 -2.61966100 -1.15933700 -2.48662400 2.52980700 -1.16338900 2.65727500 2.79031200 1.32822300" Properties=species:S:1:pos:R:3:dft_force:R:3:pseudopotential:S:1:velocities:R:3:Z:I:1
Si         1.29853056       0.11377103       0.82031472        -0.16636961       0.03901236       0.58165762   si_tiny/Si.upf         0.00000000       0.00000000       0.00000000         14
Si        -1.29853056      -0.11377103      -0.82031472         0.16636961      -0.03901236      -0.58165762   si_tiny/Si.upf         0.00000000       0.00000000       0.00000000         14
2
pbc=[T, T, T] runtime_s=19.56067039 Ecut=18.00000000 dft_energy=-229.24532227 tol=0.00000100 dft_energy_error=0.00081282 dataset=si_tiny_run2 kpoints_mp_grid=[14, 14, 11] structure_id=29 Lattice="2.27172600 -2.13522100 -1.39841900 -2.30492900 2.18854300 -1.55738000 2.26122100 2.09151400 1.45889400" Properties=species:S:1:pos:R:3:dft_force:R:3:pseudopotential:S:1:velocities:R:3:Z:I:1
Si         1.08986942       0.01150858       1.16671081         7.35692044      -9.27450181       3.80584825   si_tiny/Si.upf         0.00000000       0.00000000       0.00000000         14
Si        -1.08986942      -0.01150858      -1.16671081        -7.35692044       9.27450181      -3.80584825   si_tiny/Si.upf         0.00000000       0.00000000       0.00000000         14
2
pbc=[T, T, T] runtime_s=21.43585118 Ecut=18.00000000 dft_energy=-229.13633968 tol=0.00000100 dft_energy_error=0.00090417 dataset=si_tiny_run2 kpoints_mp_grid=[15, 14, 11] structure_id=30 Lattice="2.12996700 -2.24618300 -1.40813800 -2.20543100 2.21093500 -1.48185300 2.25041200 2.29116500 1.54729000" Properties=species:S:1:pos:R:3:dft_force:R:3:pseudopotential:S:1:velocities:R:3:Z:I:1
Si         1.15443700      -0.04151774       0.79586630       -11.42121941      10.00077076      12.55724786   si_tiny/Si.upf         0.00000000       0.00000000       0.00000000         14
Si        -1.15443700       0.04151774      -0.79586630        11.42121941     -10.00077076     -12.55724786   si_tiny/Si.upf         0.00000000       0.00000000       0.00000000         14
2
pbc=[T, T, T] runtime_s=15.24204402 Ecut=18.00000000 dft_energy=-229.25645371 tol=0.00000100 dft_energy_error=0.00095074 dataset=si_tiny_run2 kpoints_mp_grid=[16, 15, 9] structure_id=31 Lattice="2.65291700 -2.33174600 -1.02937600 -2.68203700 2.47609600 -1.34923900 2.89672100 2.54642900 1.08342300" Properties=species:S:1:pos:R:3:dft_force:R:3:pseudopotential:S:1:velocities:R:3:Z:I:1
Si         1.46360955       0.04330307       1.01698622         1.71207234      -1.82445774       0.26118440   si_tiny/Si.upf         0.00000000       0.00000000       0.00000000         14
Si        -1.46360955      -0.04330307      -1.01698622        -1.71207234       1.82445774      -0.26118440   si_tiny/Si.upf         0.00000000       0.00000000       0.00000000         14
2
pbc=[T, T, T] runtime_s=19.44222446 Ecut=18.00000000 dft_energy=-229.27449502 tol=0.00000100 dft_energy_error=0.00091015 dataset=si_tiny_run2 kpoints_mp_grid=[15, 16, 9] structure_id=32 Lattice="2.73361500 -2.40151300 -1.25811900 -2.69089500 2.39073900 -1.16129200 2.89220000 2.60281800 1.18049600" Properties=species:S:1:pos:R:3:dft_force:R:3:pseudopotential:S:1:velocities:R:3:Z:I:1
Si         1.50107889       0.12502432       1.10696507         2.35167739      -2.08811311       0.09040865   si_tiny/Si.upf         0.00000000       0.00000000       0.00000000         14
Si        -1.50107889      -0.12502432      -1.10696507        -2.35167739       2.08811311      -0.09040865   si_tiny/Si.upf         0.00000000       0.00000000       0.00000000         14
2
pbc=[T, T, T] runtime_s=19.07723485 Ecut=18.00000000 dft_energy=-228.39069442 tol=0.00000100 dft_energy_error=0.00094793 dataset=si_tiny_run2 kpoints_mp_grid=[13, 16, 12] structure_id=33 Lattice="2.58582900 -2.07092300 -1.78285800 -2.47869700 1.84588200 -1.17142000 2.39180900 1.98403500 1.58541400" Properties=species:S:1:pos:R:3:dft_force:R:3:pseudopotential:S:1:velocities:R:3:Z:I:1
Si         1.13130421       0.08270456       1.61138877       -10.73954782      22.95385361       9.38048795   si_tiny/Si.upf         0.00000000       0.00000000       0.00000000         14
Si        -1.13130421      -0.08270456      -1.61138877        10.73954782     -22.95385361      -9.38048795   si_tiny/Si.upf         0.00000000       0.00000000       0.00000000         14
2
pbc=[T, T, T] runtime_s=19.70983546 Ecut=18.00000000 dft_energy=-229.24126739 tol=0.00000100 dft_energy_error=0.00092437 dataset=si_tiny_run2 kpoints_mp_grid=[16, 15, 9] structure_id=34 Lattice="2.56772000 -2.21630900 -1.00606700 -2.61608500 2.38512400 -1.40616700 2.97160400 2.57182800 1.09504200" Properties=species:S:1:pos:R:3:dft_force:R:3:pseudopotential:S:1:velocities:R:3:Z:I:1
Si         1.42128949       0.09173394       1.17766490         2.52169244      -2.27813546      -1.88797444   si_tiny/Si.upf         0.00000000       0.00000000       0.00000000         14
Si        -1.42128949      -0.09173394      -1.17766490        -2.52169244       2.27813546       1.88797444   si_tiny/Si.upf         0.00000000       0.00000000       0.00000000         14
2
pbc=[T, T, T] runtime_s=21.40975978 Ecut=18.00000000 dft_energy=-229.46793670 tol=0.00000100 dft_energy_error=0.00092370 dataset=si_tiny_run2 kpoints_mp_grid=[15, 15, 10] structure_id=35 Lattice="2.38971700 -2.51242900 -1.24733300 -2.36305600 2.57309900 -1.31050100 2.34702000 2.49639200 1.19897200" Properties=species:S:1:pos:R:3:dft_force:R:3:pseudopotential:S:1:velocities:R:3:Z:I:1
Si         1.24021330      -0.03084452       1.07490369        -6.44795817       7.94927071      -8.39759652   si_tiny/Si.upf         0.00000000       0.00000000       0.00000000         14
Si        -1.24021330       0.03084452      -1.07490369         6.44795817      -7.94927071       8.39759652   si_tiny/Si.upf         0.00000000       0.00000000       0.00000000         14
2
pbc=[T, T, T] runtime_s=18.71237200 Ecut=18.00000000 dft_energy=-229.52312912 tol=0.00000100 dft_energy_error=0.00091286 dataset=si_tiny_run2 kpoints_mp_grid=[14, 15, 10] structure_id=36 Lattice="2.49880800 -2.27791100 -1.44349700 -2.41250800 2.28258800 -1.29332500 2.56735200 2.43275500 1.28429200" Properties=species:S:1:pos:R:3:dft_force:R:3:pseudopotential:S:1:velocities:R:3:Z:I:1
Si         1.16259394       0.07896997       1.37880905         3.17871763      -3.55300223       2.57305404   si_tiny/Si.upf         0.00000000       0.00000000       0.00000000         14
Si        -1.16259394      -0.07896997      -1.37880905        -3.17871763       3.55300223      -2.57305404   si_tiny/Si.upf         0.00000000       0.00000000       0.00000000         14
2
pbc=[T, T, T] runtime_s=20.03118195 Ecut=18.00000000 dft_energy=-229.42126504 tol=0.00000100 dft_energy_error=0.00092209 dataset=si_tiny_run2 kpoints_mp_grid=[14, 15, 10] structure_id=37 Lattice="2.68356000 -2.15269500 -1.38796800 -2.50484200 2.25664100 -1.24983200 2.51437800 2.16223100 1.05822800" Properties=species:S:1:pos:R:3:dft_force:R:3:pseudopotential:S:1:velocities:R:3:Z:I:1
Si         1.14079923      -0.04558211       1.42908811         4.04765134      -2.55770616      -4.28582984   si_tiny/Si.upf         0.00000000       0.00000000       0.00000000         14
Si        -1.14079923       0.04558211      -1.42908811        -4.04765134       2.55770616       4.28582984   si_tiny/Si.upf         0.00000000       0.00000000       0.00000000         14
2
pbc=[T, T, T] runtime_s=18.99172840 Ecut=18.00000000 dft_energy=-229.00910252 tol=0.00000100 dft_energy_error=0.00086855 dataset=si_tiny_run2 kpoints_mp_grid=[16, 17, 9] structure_id=38 Lattice="2.37695700 -2.73452200 -1.39552600 -2.22613900 2.63531700 -0.93376300 2.44068400 2.94906700 1.11681800" Properties=species:S:1:pos:R:3:dft_force:R:3:pseudopotential:S:1:velocities:R:3:Z:I:1
Si         1.08724020       0.03180390       0.35730293         6.05956589      -7.13017929       6.72700044   si_tiny/Si.upf         0.00000000       0.00000000       0.00000000         14
Si        -1.08724020      -0.03180390      -0.35730293        -6.05956589       7.13017929      -6.72700044   si_tiny/Si.upf         0.00000000       0.00000000       0.00000000         14
2
pbc=[T, T, T] runtime_s=19.37280747 Ecut=18.00000000 dft_energy=-229.28630282 tol=0.00000100 dft_energy_error=0.00091384 dataset=si_tiny_run2 kpoints_mp_grid=[16, 16, 9] structure_id=39 Lattice="2.49507000 -2.59371000 -1.14198100 -2.48091900 2.62426600 -1.17254400 2.55563100 2.66842300 1.11626800" Properties=species:S:1:pos:R:3:dft_force:R:3:pseudopotential:S:1:velocities:R:3:Z:I:1
Si         1.29571303       0.00976893       0.62421499        -0.41760240       0.44276864      -0.21111750   si_tiny/Si.upf         0.00000000       0.00000000       0.00000000         14
Si        -1.29571303      -0.00976893      -0.62421499         0.41760240      -0.44276864       0.21111750   si_tiny/Si.upf         0.00000000       0.00000000       0.00000000         14
2
pbc=[T, T, T] runtime_s=12.01087064 Ecut=18.00000000 dft_energy=-228.33591513 tol=0.00000100 dft_energy_error=0.00102530 dataset=si_tiny_run2 kpoints_mp_grid=[15, 14, 11] structure_id=40 Lattice="1.85497800 -2.01124300 -1.34842200 -1.84925300 2.06725800 -1.44120100 2.12054900 2.28253900 1.33823200" Properties=species:S:1:pos:R:3:dft_force:R:3:pseudopotential:S:1:velocities:R:3:Z:I:1
Si         1.01998796       0.03249739       0.90406032        -4.36753501       8.79528789      -1.44617778   si_tiny/Si.upf         0.00000000       0.00000000       0.00000000         14
Si        -1.01998796      -0.03249739      -0.90406032         4.36753501      -8.79528789       1.44617778   si_tiny/Si.upf         0.00000000       0.00000000       0.00000000         14
2