44
Lattice="7.2505454359083 0.0 0.0012957823943362 0.0 7.7151189184777 0.0 -3.4707766949295 0.0 8.6871276036291" Properties=species:S:1:pos:R:3:forces:R:3 subset=MC3D split=val energy=-320.29087212850936 stress="0.00014290189427216556 -0.0 2.5784740320560486e-05 -0.0 0.00023755805347633056 -0.0 2.5784740320560486e-05 -0.0 0.00022012430665496448" pbc="T T T"
Na       2.70300856       4.05416717       6.10253053      -0.00117790       0.00129623       0.00073455
Na       4.43839690       7.51851121       1.75896673      -0.00117790      -0.00129623       0.00073455
Na      -0.65862816       0.19660771       6.92945666       0.00117790       0.00129623      -0.00073455
Na       1.07676018       3.66095175       2.58589285       0.00117790      -0.00129623      -0.00073455
Al       2.75170165       7.64389969       6.54204472       0.00016932      -0.00020802      -0.00186336
Al       4.48708999       3.92877869       2.19848092       0.00016932       0.00020802      -0.00186336
Al      -0.70732125       3.78634023       6.48994247      -0.00016932      -0.00020802       0.00186336
Al       1.02806709       0.07121923       2.14637867      -0.00016932       0.00020802       0.00186336
P        4.82125336       5.75209285       4.76079075      -0.00522976       0.00061655      -0.00031814
P        6.55664171       5.82058552       0.41722695      -0.00522976      -0.00061655      -0.00031814
P       -2.77687297       1.89453340       8.27119643       0.00522976       0.00061655       0.00031814
P       -1.04148462       1.96302606       3.92763263       0.00522976      -0.00061655       0.00031814
P        1.55284529       2.26019859       8.29063687      -0.00246709       0.00157182      -0.00053085
P        3.28823364       1.59736087       3.94707306      -0.00246709      -0.00157182      -0.00053085
P        0.49153510       6.11775805       4.74135032       0.00246709       0.00157182       0.00053085
P        2.22692345       5.45492033       0.39778652       0.00246709      -0.00157182       0.00053085
O        5.01472347       4.48432581       5.60296377       0.00034397       0.00624341      -0.00037593
O        6.75011182       7.08835257       1.25939997       0.00034397      -0.00624341      -0.00037593
O       -2.97034307       0.62676635       7.42902342      -0.00034397       0.00624341       0.00037593
O       -1.23495473       3.23079311       3.08545962      -0.00034397      -0.00624341       0.00037593
O        3.09990395       2.74947531       8.17075912       0.00028451      -0.00228616      -0.00017890
O        4.83529230       1.10808415       3.82719532       0.00028451       0.00228616      -0.00017890
O       -1.05552355       6.60703477       4.86122807      -0.00028451      -0.00228616       0.00017890
O        0.67986479       4.96564361       0.51766426      -0.00028451       0.00228616       0.00017890
O        3.76265264       6.66975790       5.32447419       0.00324929      -0.00260199      -0.00046983
O        5.49804098       4.90292047       0.98091039       0.00324929       0.00260199      -0.00046983
O       -1.71827224       2.81219844       7.70751300      -0.00324929      -0.00260199       0.00046983
O        0.01711610       1.04536102       3.36394920      -0.00324929       0.00260199       0.00046983
O        2.80451608       6.10226406       7.63340795       0.00206857       0.00152939       0.00485010
O        4.53990443       5.47041432       3.28984414       0.00206857      -0.00152939       0.00485010
O       -0.76013568       2.24470460       5.39857924      -0.00206857       0.00152939      -0.00485010
O        0.97525266       1.61285486       1.05501544      -0.00206857      -0.00152939      -0.00485010
O        1.17555075       7.07003312       5.70742983      -0.00092132      -0.00460010      -0.00134979
O        2.91093909       4.50264525       1.36386603      -0.00092132       0.00460010      -0.00134979
O        0.86882965       3.21247366       7.32455736       0.00092132      -0.00460010       0.00134979
O        2.60421800       0.64508580       2.98099356       0.00092132       0.00460010       0.00134979
O        0.49903894       4.65269830       5.21536144       0.00027460       0.00520673      -0.00078562
O        2.23442729       6.91998007       0.87179764       0.00027460      -0.00520673      -0.00078562
O        1.54534145       0.79513885       7.81662574      -0.00027460       0.00520673       0.00078562
O        3.28072980       3.06242061       3.47306194      -0.00027460      -0.00520673       0.00078562
O       -0.78298315       5.35579273       7.63338099      -0.00156903      -0.00107323       0.00697981
O        0.95240520       6.21688565       3.28981719      -0.00156903       0.00107323       0.00697981
O        2.82736355       1.49823327       5.39860620       0.00156903      -0.00107323      -0.00697981
O        4.56275189       2.35932619       1.05504240       0.00156903       0.00107323      -0.00697981
10
Lattice="2.9287993549624 6.3290207912272e-15 6.6601715152056e-33 -1.4643996774312 2.5364146439716 -6.6601715152056e-33 7.2474848486392e-47 -2.8696379053034e-32 10.929363008353" Properties=species:S:1:pos:R:3:forces:R:3 subset=MC3D-rattled split=val energy=-66.50389892828025 stress="-0.41088759112642925 -0.11681692041351689 -0.053823659383441344 -0.11681692041351689 -0.22129385768976495 -0.10646951101609547 -0.053823659383441344 -0.10646951101609547 -0.46565239601969755" pbc="T T T"
B       -0.30419847       1.36598270      10.55071880      10.40943732       4.38447320      -2.54883466
B        1.46903668       0.79822004       0.15095980      -7.94616890      -4.99220431       6.09915104
B        1.42784864       1.29685973       4.98347681      11.89232632      -4.28845244       3.15542595
B        0.20131582       1.81258143       5.89357380      -1.11484951       1.06626119      13.26550332
B        0.16501548       1.56760088       4.60431068      -9.89852890       0.92151053     -18.00046206
B        1.57064527       0.68499914       6.82346631       0.28433175      -0.95185462      -1.32575651
B        1.55853042       0.97327654       9.44649477      -0.21764365      -2.66931128       5.02124208
B       -0.32595395       2.06614419       1.53060625      -2.66235530      -7.64383646     -12.74105795
Mo       1.69134877       0.68953606       2.53268142       1.30204054       8.65912825      13.45887608
Mo       0.12802800       1.27464585       8.25976412      -2.04858967       5.51428593      -6.38408728
8
Lattice="2.8320970657429 1.9446570867499e-15 0.0 -1.4160485329214 2.4526680049421 -2.6967802224888e-32 0.0 -2.0690853167303e-32 11.290874277089" Properties=species:S:1:pos:R:3:forces:R:3 subset=MC3D-rattled split=val energy=-78.20917798517985 stress="-0.24771886993628528 0.10711905683711215 0.05241168649005007 0.10711905683711215 -0.3083821609701553 -0.0143681057362386 0.05241168649005007 -0.0143681057362386 -0.32081341524129425" pbc="T T T"
Mo      -0.02030703       0.22321853       2.61809125      -1.00520702      -5.06587468       6.90456581
Mo       0.15285360      -0.18488398       8.45566080       0.12635259       1.67896232       2.22721638
Mo      -0.09802113       0.15972590       5.98391220       3.82875881      -1.22839632     -11.20627949
Mo       0.25376452       0.06055201      -0.24067042       1.18215363      -0.54979865       7.59705587
N        0.17370806       1.52879451       4.03711892      -0.54891449       2.19771499       1.07534498
N       -0.17923955       1.68221871       1.57867423       1.93375422       2.86064605      -5.88626593
N        1.74658031       0.86647409      10.06544279      -1.76211312       0.17370223      -5.94053532
N        1.53422700       0.98581387       6.97361323      -3.75478461      -0.06695594       5.22889770
34
Lattice="6.1393113539655 0.0076147278667165 -0.15747054751171 2.239111507713 9.2131763441298 -0.14898014374882 2.8028610540489 2.9610821473573 8.7989216444405" Properties=species:S:1:pos:R:3:forces:R:3 subset=MC3D-rattled split=val energy=-176.0436280453796 stress="-0.10518834487748764 -0.03121512174101055 0.10092102173786781 -0.03121512174101055 -0.05840218107876041 -0.06269639922431854 0.10092102173786781 -0.06269639922431854 -0.2307554916064969" pbc="T T T"
C        6.91696831      10.21077457       3.84744729       8.19010586      -8.27906078      -0.63186363
C        3.90851099       1.49273087       4.75558125      -5.51677259       8.62269453       1.10558416
C        7.90584357       8.69036489       4.25726936      -6.00469077       5.96124298      -4.22234818
C        3.75739812       3.13944147       4.35409218       0.34267609      -2.94549811       3.95911074
C        7.52138128       8.44867668       2.74867038       5.86948344      -0.63203667       3.03563808
C        3.60479148       3.68101435       5.57369238      -1.96666943       6.23720068       8.76605028
C        2.76035236       8.69012244       2.24576511     -22.49624886     -15.96616191      -5.16082588
C        8.49907278       3.87520653       6.55391957       2.28285534      -4.92852640      -9.76424670
C        2.60987276       7.90707448       0.95629340       6.29062274       1.60769936      -1.96375175
C        7.95117819       3.96130859       7.63833861      34.57626669      11.09036510     -33.82444117
C        2.12271398       6.94122753       0.10337194      -6.18046901      13.87405533      37.26918226
C        8.98148682       5.11999085       8.13455936       7.42568549       3.87061159      -3.54675300
C        7.01783981       6.80686815       0.81073491      -2.68701928      -1.47521450       4.98341717
C        4.14000284       5.69284522       7.68825996      -6.22286568      -6.10351317      -3.60347744
C        6.75664177       7.30630545       2.43344685      24.49178573      13.81736441     -26.79665688
C        3.86575291       4.89599728       6.37466204       6.47196752      -1.19817215      -3.24929234
C        8.34862146       8.20075274       5.57410343       1.65355336      -4.67812184     -13.26865786
C        2.96922977       3.72713523       3.22660648       2.91310067      30.23794838      34.25506355
F        3.69041796       9.25035276       2.20920595      18.35987367      13.10268162       2.31980152
F        7.08231069       2.27337850       6.26431719       1.04104509       0.90802783       0.21425833
F        6.90694253      11.16753346       8.91467809      -2.21144494       0.00068919       1.19098956
F        4.53729262       0.87468208      -0.42736767     -38.09542172      -9.67497559      41.74842028
F        4.92099163       9.51780464       7.95575394       2.37110026     -13.45275131     -34.31610015
F        5.98914097       2.78225635       0.40510747      -2.71786484       0.93812632       5.53996729
F        6.12840486       5.68219851       0.78076263       1.08795273       0.91427867      -1.09440707
F        5.21503580       6.42292704       8.01323270      -1.26530829      -0.71813551      -0.15108399
F        6.09270474       6.92095128       3.12161343     -22.79267688     -14.19173342      21.67752706
F        5.38511633       5.10010916       5.64848501      -0.64417875       1.07719887       0.53458208
F        8.27695604       8.78668912       6.56442258      -1.52162472       4.01818751       9.57277224
F        2.94693916       3.02732939       2.53076059       0.19839666     -32.66368624     -39.08611961
F        7.95125972       6.85186951       5.38856850       0.71815091       0.73342282       2.11928915
F        3.30323555       5.10457110       3.10104010       2.18583265       0.08002153      -1.75939781
F        3.60541783       8.31166557       5.24971145       0.66677764      -1.15226965       1.33420396
F        7.90718809       3.96928420       3.45035993      -6.81397677       0.96804054       2.81356575
42
Lattice="6.6660796723304 3.8486628932358 2.9698393648873 -6.6660796723304 3.8486628932358 2.9698393648873 -7.2845331058235e-16 -7.6973257865716 2.9698393648873" Properties=species:S:1:pos:R:3:forces:R:3 subset=MC3D split=val energy=-223.56706637248135 stress="-9.247803827344778e-05 1.7067558802049337e-21 -3.2428559126339747e-21 1.7067558802049337e-21 -9.247803827225738e-05 -2.0759332185081473e-15 -3.2428559126339747e-21 -2.0759332185081473e-15 -0.0001189564297162043" pbc="T T T"
Li      -2.72028905       7.46078877       5.21062547      -0.00083251      -0.00038198       0.00103990
Li       5.51078221       1.37455496       3.69889263      -0.00008545      -0.00091197      -0.00103990
Li       5.10108808       6.08623381       3.69889263      -0.00074706       0.00052999      -0.00103990
Li       9.38636873       4.08519991       3.69889263       0.00083251       0.00038198      -0.00103990
Li       1.15529747      10.17143372       5.21062547       0.00008545       0.00091197       0.00103990
Li       1.56499159       5.45975487       5.21062547       0.00074706      -0.00052999       0.00103990
Li       4.00338790      11.36614324       5.20991685      -0.00100161      -0.00088271       0.00005209
Li       5.49048450       9.15010724       3.69960124       0.00026364      -0.00130878      -0.00005209
Li      11.84506274       2.21603600       3.69960124      -0.00126525       0.00042607      -0.00005209
Li       2.66269177       0.17984544       3.69960124       0.00100161       0.00088271      -0.00005209
Li       1.17559517       2.39588144       5.20991685      -0.00026364       0.00130878       0.00005209
Li      -5.17898307       9.32995268       5.20991685       0.00126525      -0.00042607       0.00005209
Be       5.45557801       9.10689267       6.67853428       0.00099662      -0.00137636      -0.00117072
Be      -5.15901139       9.27811548       2.23098381       0.00169028       0.00017492       0.00117072
Be       3.94850973      11.37476587       2.23098381      -0.00069365      -0.00155128       0.00117072
Be       1.21050166       2.43909601       2.23098381      -0.00099662       0.00137636       0.00117072
Be      11.82509107       2.26787320       6.67853428      -0.00169028      -0.00017492      -0.00117072
Be       2.71756994       0.17122281       6.67853428       0.00069365       0.00155128      -0.00117072
F       -0.30573088       5.28916703       4.98776332      -0.00074249      -0.00085568      -0.00144684
F        8.59874089       2.37981281       3.92175477       0.00036979      -0.00107086       0.00144684
F        4.42768758       2.90935422       3.92175477      -0.00111229       0.00021518       0.00144684
F        6.97181055       6.25682165       3.92175477       0.00074249       0.00085568       0.00144684
F       -1.93266122       9.16617587       4.98776332      -0.00036979       0.00107086      -0.00144684
F        2.23839210       8.63663446       4.98776332       0.00111229      -0.00021518      -0.00144684
F        6.30963064       9.18809368       5.37846864       0.00022165       0.00035809       0.00035941
F       -4.80230722      10.05834726       3.53104945      -0.00019929       0.00037100      -0.00035941
F        4.44585818      10.67573510       3.53104945       0.00042094      -0.00001291      -0.00035941
F        0.35644904       2.35789500       3.53104945      -0.00022165      -0.00035809      -0.00035941
F       11.46838689       1.48764142       5.37846864       0.00019929      -0.00037100       0.00035941
F        2.22022149       0.87025358       5.37846864      -0.00042094       0.00001291       0.00035941
F        4.48887601      10.33814408       6.69448455       0.00097316      -0.00153991       0.00118405
F        6.62350195       9.05655270       2.21503355       0.00182018       0.00007283      -0.00118405
F       11.19753340       1.28159138       2.21503355      -0.00084702      -0.00161274      -0.00118405
F        2.17720366       1.20784460       2.21503355      -0.00097316       0.00153991      -0.00118405
F        0.04257772       2.48943598       6.69448455      -0.00182018      -0.00007283       0.00118405
F       -4.53145373      10.26439730       6.69448455       0.00084702       0.00161274       0.00118405
F       -4.58107944       7.57765782       5.20259419       0.00006149      -0.00165212      -0.00041021
F        4.47917545      -0.17850226       3.70692390       0.00146152      -0.00077281       0.00041021
F        4.27190445       7.75616008       3.70692390      -0.00140004      -0.00087931       0.00041021
F       11.24715911       3.96833086       3.70692390      -0.00006149       0.00165212       0.00041021
F        2.18690422      11.72449094       5.20259419      -0.00146152       0.00077281      -0.00041021
F        2.39417522       3.78982860       5.20259419       0.00140004       0.00087931      -0.00041021
20
Lattice="5.4172778107214 0.0 0.00054001169763964 0.0 5.6330011792785 0.0 -5.3918253218327 0.0 7.794214040332" Properties=species:S:1:pos:R:3:forces:R:3 subset=MC3D split=val energy=-101.61475621051795 stress="-0.00022927936612026595 -0.0 -3.5620095647465806e-05 -0.0 -0.0001607896989908435 -0.0 -3.5620095647465806e-05 -0.0 -0.0002274707851836753" pbc="T T T"
Na       2.62650966       0.30826444       1.91786237      -0.00060195       0.00077645       0.00132293
Na      -0.06940300       2.50823615       5.81496939      -0.00060195      -0.00077645       0.00132293
Na       0.09485549       3.12476503       1.97978467       0.00060195       0.00077645      -0.00132293
Na      -2.60105718       5.32473674       5.87689169       0.00060195      -0.00077645      -0.00132293
Na       2.70863891       2.81650059       0.00027001       0.00000000       0.00000000       0.00000000
Na       0.01272624       0.00000000       3.89737703       0.00000000       0.00000000       0.00000000
Al      -2.69591266       2.81650059       3.89710702       0.00000000       0.00000000       0.00000000
Al       0.00000000       0.00000000       0.00000000       0.00000000       0.00000000       0.00000000
F        3.30351906       2.53844540       2.19145575      -0.00186086       0.00159008      -0.00017859
F        0.60760640       0.27805519       6.08856277      -0.00186086      -0.00159008      -0.00017859
F       -0.58215391       5.35494599       1.70619128       0.00186086       0.00159008       0.00017859
F       -3.27806657       3.09455578       5.60329830       0.00186086      -0.00159008       0.00017859
F        1.82744562       4.32356682       3.37235786       0.00111970      -0.00163141      -0.00046134
F       -0.86846704       4.12593495       7.26946488       0.00111970       0.00163141      -0.00046134
F        0.89391953       1.50706623       0.52528917      -0.00111970      -0.00163141       0.00046134
F       -1.80199313       1.30943436       4.42239619      -0.00111970       0.00163141       0.00046134
F        1.24171665       1.82963033       3.52589712       0.00082981      -0.00097508       0.00253448
F       -1.45419601       0.98687026       7.42300414       0.00082981       0.00097508       0.00253448
F        1.47964850       4.64613092       0.37174991      -0.00082981      -0.00097508      -0.00253448
F       -1.21626416       3.80337085       4.26885694      -0.00082981       0.00097508      -0.00253448
24
Lattice="6.8416741784825 -6.4510772942139e-14 0.0 -3.4208370892912 5.9250636430402 0.0 0.0 0.0 7.1006636779004" Properties=species:S:1:pos:R:3:forces:R:3 subset=MC3D-rattled split=val energy=-103.32616031794169 stress="-0.15254112987602816 0.0020173673335979023 -0.005047836773549939 0.0020173673335979023 -0.14622337339854174 -0.03974100182485547 -0.005047836773549939 -0.03974100182485547 -0.09065717338311459" pbc="T T T"
Cu       3.92758934       3.66120287       0.48188714       1.27833808      -0.21953059       0.53156220
Cu       5.57623672       1.92822541       4.17746849      -0.69926923      -0.87386141       2.26874012
Cu       0.73485471       5.63789321       3.12290468       3.62114857      -1.01732846      -1.97105564
Cu       1.87257044       3.84714412       6.55534437       0.42730330      -0.48456107      -0.07114232
Cu       2.58120446       3.63761617       3.91903647       2.43287298       2.22779876       3.35453280
Cu       4.51789002       0.24590583       0.48599059       0.17683168       0.57263875       0.10860733
Cu       2.55089229       0.51481018       4.18106437       0.86840907      -3.28064234      -0.43096963
Cu       1.37851168       1.67409534       0.24556167       3.61291385       3.04910379       2.90257183
Cu      -1.80628802       3.67858594       2.70446609      -2.87047477       6.53905783       2.06591960
Cu      -0.59266680       2.34874740       6.62034949      -2.21969870       0.57451102      -0.28176076
Cu      -1.25977342       5.61938023       6.48706653       5.24819877       0.10051645       1.44693483
Cu       0.88096669       2.70589329       3.10264256      -1.29486548      -2.38211911      -0.56568068
Cu       0.36502821       3.94607451       1.26757354      -4.24242604       0.07026700      -1.53508504
Cu      -0.00574640       4.04450373       4.83775185      -4.57208460      -4.15862689      -0.64127809
Cu       3.30567459       1.93360121       2.64178125       0.86649210       0.20201848      -2.37997880
Cu       3.51427832       1.95123793       6.05412021       0.89773756      -0.24202020      -0.83863133
Cu       0.16814415       0.09620867      -0.12653940      -5.64118459      -2.94642217      -0.04026615
Cu       0.20951709       0.09961802       3.48275136      -0.14046750      -0.46990514      -0.37810731
P        2.23186338       4.18627623       1.87737993       3.94340730       0.97664424      -0.36016561
P        4.64486596      -0.53531757       5.29242735       3.85112132       6.90349137       1.34942912
P       -2.32903251       4.37541530       5.34549602      -2.15853434      -3.36582231      -1.90893777
P       -0.99136040       2.12208095       2.08793753       1.97364582      -6.49869319      -4.93816255
P        1.41195564       1.71144125       5.08750592      -4.36637170       3.93561683       2.92901773
P        2.31627099      -0.11469425       1.82432239      -0.99304345       0.78786835      -0.61609388
184
Lattice="9.4527 0.0 0.0 0.0 10.1222 0.0 -3.17395727954 0.0 17.7110485694" Properties=species:S:1:pos:R:3:forces:R:3 subset=SHIFTML-molcrys split=val energy=-1013.6535249063345 stress="0.005162329057610611 -0.005889084606964908 0.0014238000111310993 -0.005889084606964908 0.00942471691602603 -0.004945552550319448 0.0014238000111310993 -0.004945552550319448 0.01219761408918299" pbc="T T T"
C        7.23579000       5.95518000       2.74836000       0.13873069      -0.77574244       1.26641887
C        5.16596000       0.40172800       5.95056000       1.21451288      -1.80177768       2.03687716
C       -1.09734000       4.53598000      14.89910000      -1.26968024      -1.36093545       0.93785301
C        1.23114000       9.51623000      11.78400000      -1.33539070      -0.92104615       0.69368338
N        6.80366000       7.06025000       3.48231000       1.30529807      -1.54818722      -2.27902730
N        5.59944000       1.53043000       5.43683000      -0.38645325       1.05790909      -0.94938500
N       -0.78156800       3.33482000      14.29330000      -0.28819964       1.86506210       0.68673920
N        0.97324700       8.32309000      12.44950000       1.53632131       0.73794293      -1.27082875
H        6.32176000       6.86386000       4.36792000      -0.12601975       0.29947308       0.19344758
H        6.11857000       1.53734000       4.53261000      -0.29039258       0.22781977       0.41982867
H       -0.54821600       3.40368000      13.30290000       0.58348325      -0.00292807      -0.53347611
H        0.60162200       8.38491000      13.41660000      -0.22478476      -0.23150457      -0.22000134
H        7.16369000       7.97959000       3.18644000       0.03685054      -0.11334642       0.61469556
H        5.08467000       2.33361000       5.73615000      -0.19435650       1.20295242      -0.20112147
H       -1.30778000       2.51054000      14.51340000      -0.50469246      -0.69687254       0.44126090
H        1.49000000       7.46072000      12.10000000      -0.89817420       1.06037466       0.69647365
N        6.64256000       4.77961000       3.11949000       0.44459431       1.10374873      -0.19495117
N        5.90048000       9.48060000       5.56146000      -1.79192509      -2.44664878       0.95006707
N       -0.66238100       5.63843000      14.30340000       0.60747393       1.53844815       1.17449195
N        0.67031700       0.51850400      12.32190000       0.87657315      -3.52065732       0.84093054
H        6.01776000       4.83253000       3.92243000      -0.49594015      -0.41068218       0.30837864
H        6.60058000       9.55711000       4.87487000       1.46601891       0.53511122      -1.63792801
H        0.12472400       5.62135000      13.65170000       0.33765572      -0.52152935      -0.67667808
H        0.04607660       0.42447800      13.13060000      -0.32821216       0.15701063      -0.02685767
H        7.05351000       3.85894000       2.89410000      -0.01335363       0.30740790      -0.20941570
H        5.62843000       8.50216000       5.80327000      -0.01079678       0.80292756       0.21001570
H       -0.61236200       6.52442000      14.87610000      -0.69777611      -0.68289059      -0.62044384
H        0.69229900       1.34119000      11.81450000       0.11517268       2.42891484      -1.30309876
S        8.52322000       5.79932000       1.61165000      -0.93024513       0.72597504       0.22130215
S        4.20998000       0.18783600       7.37723000      -0.30699209       0.65555738      -0.79963916
S       -2.13283000       4.66334000      16.34580000       1.22157599      -0.21609287      -1.40783351
S        2.01726000       9.53618000      10.27990000       0.16651973       0.38046495       0.02118313
C        3.19560000       7.53304000       0.48032700       0.11029326       0.27841341       0.71392787
C       -0.23339700       2.33779000       8.42675000      -1.85117145       0.22295692      -0.14663677
C        3.15540000       2.74888000      17.10830000      -0.15359718       1.14707323      -1.24912217
C        6.17519000       7.52901000       9.39128000      -0.74335644       2.14321758       0.81452278
H        2.52219000       6.72695000       0.16371400       0.38248321      -0.74719413      -0.04583400
H        0.51467400       1.66890000       8.81369000       0.93817067      -0.63184690      -0.49215613
H        3.68049000       3.68463000      17.29440000       0.85996034      -0.04446782       0.45931548
H        5.39331000       8.34707000       9.17534000       0.80474023      -0.97322843      -0.07979808
H        2.56584000       8.37574000       0.16964300       0.27880943       0.56430238       0.07970403
H       -0.04808180       3.29248000       8.86266000       0.52083442       1.13587105       0.43821490
H        3.68174000       1.86334000      17.39050000       0.59880132      -0.63553201       0.90581723
H        5.69065000       6.56864000       9.22127000       0.18667581      -0.33885655      -0.59976864
C        1.42690272       7.58149000      17.53567157      -0.86083818      -1.80617783       0.53847645
C       -1.60121000       1.90206000       8.95595000       0.64456735      -0.89644908      -0.20772053
C        4.97609728       2.86082000       0.02005143      -0.21342682      -2.47026482       1.47294996
C        7.46097000       7.83721000       8.63671000      -0.25933149      -0.95992051       0.41780333
H        1.24854000       7.68422000      16.44450000       0.15524148      -0.22313603       0.29753061
H       -1.65890000       1.90431000      10.07040000       0.34973970       0.32423553      -0.51977823
H        5.08340000       2.40003000       1.11795000      -0.34292375       0.94249892      -2.08577730
H        7.17649000       7.87525000       7.58577000       0.00182395      -0.03896614      -0.39224178
H        5.22455000       6.64706000       0.06520220      -0.79741664       0.96313957      -0.43217745
H        7.63247000       0.83683400       8.67495000      -0.11086510       0.70407859      -0.09105452
H        4.53099728       3.83091000       0.09855143      -0.08035320       1.05534198       0.01290418
H       -1.50532000       8.78970000       8.87511000      -0.17077025       0.15360832       0.22887095
H        5.19898000       8.42105000       0.13970300       0.20987940       0.68467472       0.25730384
H        7.11861000       2.59740000       8.56328000      -0.79901876       0.02605304      -0.04133049
H        1.08123000       2.24012000      17.15770000      -0.03150946      -0.04552539       0.46189806
H       -1.24267000       7.03245000       8.76691000      -0.07356901       0.19075000      -0.03505246
C        4.22924000       8.49918000       2.59775000      -1.88595344       1.04801315      -1.60407612
C       -0.96301700       3.81058000       6.43999000      -1.02273895      -0.87117586       1.76628471
C        2.32246000       1.61160000      15.03350000      -0.67582673      -0.48773138      -0.31409148
C        7.32386000       6.58863000      11.46350000      -1.96436763      -1.07868073       0.46374168
H        5.16538000       8.14137000       2.28559000       1.40457467      -0.92933602      -0.16725242
H        7.43006000       3.64045000       6.74230000       0.31577363      -0.08558347       0.30951666
H        1.24868000       1.96034000      15.08440000       0.79631000      -0.24882403       0.45311921
H       -1.07877000       6.79244000      11.11520000      -0.85827116       0.43308750       0.46854244
H        4.05680000       8.37350000       3.64819000       0.36037003       0.28534698       0.98669043
H        8.38191000       3.73996000       5.36551000       0.58836497       0.21553102      -0.67875936