32
Lattice="8.1 0.0 0.0 0.0 8.1 0.0 0.0 0.0 8.1" Properties=species:S:1:pos:R:3:momenta:R:3:future_positions:R:3:future_momenta:R:3:energies:R:1:forces:R:3 energy=1.1340841974476419 free_energy=1.1340841974476419 stress="0.005677189561505828 0.0011925277998746386 -0.0006305198280155175 0.0011925277998746386 0.005781646393443448 -0.0004928529845999968 -0.0006305198280155175 -0.0004928529845999968 0.004270534594576445" pbc="T T T"
Al      -0.04702159      -0.11079281       0.01275713      -0.92568789      -0.28047331       1.12200505      -0.14164434      -0.09767925       0.07358831      -0.74702255       0.60289403      -0.06144572       0.02265073      -0.00614687       0.18024622      -0.30012637
Al       0.05296423       2.14678113       2.06387370       0.15122967       0.25621520      -1.03209031       0.06881928       2.13791454       1.88696537       0.02983044      -0.30406963      -1.88465497       0.05358332       0.05127824      -0.29496055      -0.56405147
Al       1.87944898      -0.05213441       2.00388485      -0.59166216      -0.91703304       0.51186219       1.84272050      -0.12564828       2.04414556      -0.01131698      -0.35140065       0.23137799       0.00653479       0.11072242       0.07827705      -0.09384949
Al       1.92648631       1.83516859      -0.25855988      -0.18390141       0.04968712      -0.05414757       1.95055610       1.88286578      -0.12413472       0.69816239       0.73368551       2.34034970       0.07724740       0.15372545       0.30903824       0.84628329
Al      -0.24311070      -0.19592930       3.87507239       0.91244763       0.69519949       0.51930381      -0.11469837      -0.10237957       3.95446609       1.30822637       0.94925074       0.89174080       0.01153718       0.27144905       0.18957658       0.17071977
Al       0.08529106       1.98594834       6.04189894       1.68126657       1.11734256       2.26787508       0.16344515       2.07301465       6.21274631      -0.37240664       0.34706803       0.80315785       0.03481755      -0.42638857      -0.11234006      -0.34678528
Al       2.21719126      -0.06742343       6.09752745       0.32771308       0.15363667       0.44390884       2.16370873      -0.06883391       6.10745846      -1.22832091      -0.10887045      -0.27305810       0.07577722      -0.56340706      -0.10080820      -0.20746078
Al       2.01442315       1.91547322       3.95600240      -1.44960233       0.21157592       1.50991563       1.85708980       1.93864619       4.12019894      -1.15582264       0.11255958       1.20161873       0.02336357      -0.19515462       0.08218329       0.21748218
Al      -0.01589181       4.02147933      -0.09222917      -0.05538420       1.15477264      -0.62102714      -0.01546693       4.12511322      -0.16956227       0.14408767       0.73840739      -0.76407550       0.01455007      -0.01624443      -0.10557718      -0.05726834
Al      -0.05055151       5.94305268       1.81085789       0.33615729      -0.47004407      -1.31723657      -0.04926398       5.92464636       1.76432661      -0.29461390       0.07104339       0.67478835       0.04178882      -0.18256378       0.22520004       0.38626520
Al       1.90222105       4.09740761       1.99054932       1.19413979       0.82878997      -0.56179153       2.07439953       4.15454661       1.95955055       1.62491196       0.07620777       0.14879027       0.03413812       0.45980725      -0.07732671       0.04493850
Al       2.10201270       6.04166580      -0.02357162      -0.93215545      -0.36813093       0.41670984       2.01764816       6.02545807       0.00332369      -0.47975279       0.16444281      -0.07906745       0.00082914      -0.02571155       0.07058915       0.02379381
Al       0.13416170       4.05506013       4.11964598      -0.00623447      -0.95166999       0.57067852       0.08649170       3.98532478       4.14496912      -0.96119446      -0.25526646      -0.23398225       0.02368811      -0.21116041       0.13594383      -0.12363060
Al       0.03253541       6.02330083       6.06440228       0.48153739       1.82296488      -0.04356927       0.05220960       6.23819305       6.06273382      -0.18146141       1.83503185      -0.02040767       0.00333850      -0.15725093       0.26923466       0.05217186
Al       2.08657583       4.06115406       6.02976873       0.58859786       1.15933629      -2.44310679       2.11462529       4.17531192       5.82566993      -0.07671340       0.80720293      -0.85912985       0.03957315      -0.21064799      -0.01352054       0.03839310
Al       2.11669852       6.16807773       4.07698902       0.76710140      -0.97906473       0.06437725       2.12313960       6.06799428       4.07396895      -0.68400797      -0.59951657      -0.19382892       0.02573842      -0.40090492      -0.13060873      -0.05801349
Al       4.05253091       0.03018753       0.11010712       0.12011403      -0.43029220      -0.63899463       4.00398275      -0.00444428      -0.01330917      -0.71815537      -0.25755682      -1.31212164       0.07904696      -0.50475787       0.10649575      -0.50399724
Al       4.00718748       1.98187314       1.97253376       0.45252469      -0.97903457      -0.85209691       3.99087121       1.91971150       1.92232659      -0.69729016      -0.15876907      -0.09562071       0.03567081      -0.35461622       0.23041463       0.22527021
Al       6.00667241       0.11975682       1.77163077      -0.27934441      -0.58027973       0.58854838       6.02719304      -0.00355172       1.93730460       0.49016017      -1.46384076       2.07496505       0.11458742       0.39223685      -0.51074625       0.85086973
Al       5.98383819       2.03813842       0.07584755      -0.52379482       0.58722080      -1.19626033       5.97927133       2.12079252      -0.09356447       0.34211572       0.59424174      -1.50933892       0.05060309       0.34776289       0.33552545      -0.48596808
Al       4.00275214       0.08806906       4.01035444      -0.21849551      -0.09627982      -0.02551383       4.03775130       0.07115652       3.99911254       0.58969411      -0.16395783      -0.11602281       0.03930581       0.51236583      -0.10838360      -0.09195140
Al       3.99999492       2.01293616       5.96998359       0.16556916      -0.02911699      -0.17484008       4.03761361       2.02243775       5.95820692       0.32206586       0.19090214      -0.04955365       0.03608122       0.22775145       0.06717497       0.05746025
Al       6.02134612       0.17064090       6.03908456      -0.76822480      -0.35528856      -0.35825838       5.97332772       0.10015807       5.99716010       0.03882057      -0.84322948      -0.34751586       0.00042342       0.08332397      -0.26061770      -0.04667698
Al       6.20668782       2.11697303       3.75498279      -0.73288482      -0.96286411      -0.22939510       6.08053437       2.01201615       3.83324800      -1.27709813      -0.80099739       1.43561546       0.04321050      -0.47548033      -0.09794323       0.73922972
Al       3.80968257       3.82161574      -0.02322764      -1.23156609      -0.01174375      -0.48759164       3.75152501       3.88945157      -0.07449872       0.26324766       1.20359371      -0.56321707       0.03578682       0.39539538       0.43839087       0.08691625
Al       4.02496502       6.21924330       2.13796420      -0.31360186       0.41827070       1.16892036       4.00085319       6.20537018       2.19255602      -0.04937216      -0.62993082      -0.31762305       0.02924519      -0.00723773      -0.37292646      -0.30290124
Al       5.99537300       4.11979565       1.96209669       0.46432721      -0.17058057      -0.04341488       6.02235028       4.09009288       1.92492365      -0.00407067      -0.44962031      -0.50076215       0.02753940      -0.10287906      -0.03080385      -0.25668735
Al       5.80378686       6.15915967      -0.09433326      -0.07147968      -0.45834304       0.31595992       5.86914086       6.04590611      -0.03740086       1.06515740      -1.45948599       0.61170209       0.04981695       0.54218809      -0.43510911       0.18172519
Al       3.91162678       4.02371461       4.05182777       0.09485252       0.45907209       0.22228236       3.96816156       4.03585830       4.02324556       0.99434852      -0.38351039      -0.77533625       0.01195861       0.21618763      -0.08758067      -0.25187124
Al       4.06626788       6.11353194       6.08745936       0.63733805       0.84337602      -0.09001455       4.12813993       6.16514934       6.04523419       0.41047204       0.01668604      -0.54566975       0.05292054       0.00969962      -0.17712336      -0.28170217
Al       6.01825863       4.01925185       6.10912891       0.49160413      -0.78011030      -0.05111983       6.06549188       3.92416599       6.08838817       0.32756440      -0.72771087      -0.42846795      -0.00227036      -0.00656163      -0.19353545      -0.04824398
Al       6.01447389       5.85392511       4.03109711      -0.58250060      -0.93711066       0.49812209       5.98889133       5.82834313       4.09205931       0.28975486       0.51451583       0.51679394       0.04100172       0.07321982       0.39162093       0.09966643
32
Lattice="8.1 0.0 0.0 0.0 8.1 0.0 0.0 0.0 8.1" Properties=species:S:1:pos:R:3:momenta:R:3:future_positions:R:3:future_momenta:R:3:energies:R:1:forces:R:3 energy=1.0959360262325504 free_energy=1.0959360262325504 stress="0.005825111983389714 0.0011850011251174613 -0.00023219905878717745 0.0011850011251174613 0.006778846074569089 0.00012546179152091158 -0.00023219905878717745 0.00012546179152091158 0.0035161531396422172" pbc="T T T"
Al      -0.14164434      -0.09767925       0.07358831       0.74702255      -0.60289403       0.06144572      -0.04702159      -0.11079281       0.01275713       0.92568789       0.28047331      -1.12200505       0.03269377       0.11202371       0.32909527      -0.39953682
Al       0.06881928       2.13791454       1.88696537      -0.02983044       0.30406963       1.88465497       0.05296423       2.14678113       2.06387370      -0.15122967      -0.25621520       1.03209031      -0.00480635      -0.16263840      -0.06845768       0.07084535
Al       1.84272050      -0.12564828       2.04414556       0.01131698       0.35140065      -0.23137799       1.87944898      -0.05213441       2.00388485       0.59166216       0.91703304      -0.51186219       0.01001803       0.24817201       0.24053018      -0.08953921
Al       1.95055610       1.88286578      -0.12413472      -0.69816239      -0.73368551      -2.34034970       1.92648631       1.83516859      -0.25855988       0.18390141      -0.04968712       0.05414757       0.08242722       0.28727513       0.12956701       0.47588070
Al      -0.11469837      -0.10237957       3.95446609      -1.30822637      -0.94925074      -0.89174080      -0.24311070      -0.19592930       3.87507239      -0.91244763      -0.69519949      -0.51930381       0.01714345      -0.00355455       0.04370989       0.06999571
Al       0.16344515       2.07301465       6.21274631       0.37240664      -0.34706803      -0.80315785       0.08529106       1.98594834       6.04189894      -1.68126657      -1.11734256      -2.26787508       0.08157520      -0.66607753      -0.37882658      -0.46344432
Al       2.16370873      -0.06883391       6.10745846       1.22832091       0.10887045       0.27305810       2.21719126      -0.06742343       6.09752745      -0.32771308      -0.15363667      -0.44390884       0.04190714      -0.39951245       0.02948930      -0.22519764
Al       1.85708980       1.93864619       4.12019894       1.15582264      -0.11255958      -1.20161873       2.01442315       1.91547322       3.95600240       1.44960233      -0.21157592      -1.50991563       0.02200803       0.35637493      -0.09958378      -0.37429681
Al      -0.01546693       4.12511322      -0.16956227      -0.14408767      -0.73840739       0.76407550      -0.01589181       4.02147933      -0.09222917       0.05538420      -1.15477264       0.62102714       0.03927447       0.14721845      -0.11977528       0.00760083
Al      -0.04926398       5.92464636       1.76432661       0.29461390      -0.07104339      -0.67478835      -0.05055151       5.94305268       1.81085789      -0.33615729       0.47004407       1.31723657       0.06742362      -0.14536591       0.11289224       0.79916065
Al       2.07439953       4.15454661       1.95955055      -1.62491196      -0.07620777      -0.14879027       1.90222105       4.09740761       1.99054932      -1.19413979      -0.82878997       0.56179153       0.03417295      -0.19942500      -0.35853629       0.34362726
Al       2.01764816       6.02545807       0.00332369       0.47975279      -0.16444281       0.07906745       2.10201270       6.04166580      -0.02357162       0.93215545       0.36813093      -0.41670984       0.02465502       0.23404391       0.25012025      -0.27042677
Al       0.08649170       3.98532478       4.14496912       0.96119446       0.25526646       0.23398225       0.13416170       4.05506013       4.11964598       0.00623447       0.95166999      -0.57067852       0.02796701      -0.37791241       0.27748691      -0.36814238
Al       0.05220960       6.23819305       6.06273382       0.18146141      -1.83503185       0.02040767       0.03253541       6.02330083       6.06440228      -0.48153739      -1.82296488       0.04356927       0.00981452      -0.28006476      -0.29051862      -0.01375429
Al       2.11462529       4.17531192       5.82566993       0.07671340      -0.80720293       0.85912985       2.08657583       4.06115406       6.02976873      -0.58859786      -1.15933629       2.44310679       0.09301238      -0.21139200      -0.25720087       0.87778169
Al       2.12313960       6.06799428       4.07396895       0.68400797       0.59951657       0.19382892       2.11669852       6.16807773       4.07698902      -0.76710140       0.97906473      -0.06437725       0.07037604      -0.46732888       0.36184115      -0.19309399
Al       4.00398275      -0.00444428      -0.01330917       0.71815537       0.25755682       1.31212164       4.05253091       0.03018753       0.11010712      -0.12011403       0.43029220       0.63899463       0.02543598       0.04296096       0.00465268       0.08753950
Al       3.99087121       1.91971150       1.92232659       0.69729016       0.15876907       0.09562071       4.00718748       1.98187314       1.97253376      -0.45252469       0.97903457       0.85209691       0.00857623      -0.25856965       0.23895183       0.19608769
Al       6.02719304      -0.00355172       1.93730460      -0.49016017       1.46384076      -2.07496505       6.00667241       0.11975682       1.77163077       0.27934441       0.58027973      -0.58854838       0.03414284       0.09435158      -0.09020159       0.13327252
Al       5.97927133       2.12079252      -0.09356447      -0.34211572      -0.59424174       1.50933892       5.98383819       2.03813842       0.07584755       0.52379482      -0.58722080       1.19626033       0.02167142       0.16033624      -0.30831533       0.28951954
Al       4.03775130       0.07115652       3.99911254      -0.58969411       0.16395783       0.11602281       4.00275214       0.08806906       4.01035444       0.21849551       0.09627982       0.02551383       0.03294475      -0.01900352      -0.01336623       0.03166867
Al       4.03761361       2.02243775       5.95820692      -0.32206586      -0.19090214       0.04955365       3.99999492       2.01293616       5.96998359      -0.16556916       0.02911699       0.17484008       0.02188171      -0.16463562       0.04277294       0.04473213
Al       5.97332772       0.10015807       5.99716010      -0.03882057       0.84322948       0.34751586       6.02134612       0.17064090       6.03908456       0.76822480       0.35528856       0.35825838       0.00813215       0.38064273      -0.06823912       0.07677835
Al       6.08053437       2.01201615       3.83324800       1.27709813       0.80099739      -1.43561546       6.20668782       2.11697303       3.75498279       0.73288482       0.96286411       0.22939510       0.00925986       0.11659208       0.20638760       0.30436803
Al       3.75152501       3.88945157      -0.07449872      -0.26324766      -1.20359371       0.56321707       3.80968257       3.82161574      -0.02322764       1.23156609       0.01174375       0.48759164       0.04264960       0.58203268       0.33760003      -0.12508081
Al       4.00085319       6.20537018       2.19255602       0.04937216       0.62993082       0.31762305       4.02496502       6.21924330       2.13796420       0.31360186      -0.41827070      -1.16892036       0.04691828       0.15282629      -0.28125141      -0.58757944
Al       6.02235028       4.09009288       1.92492365       0.00407067       0.44962031       0.50076215       5.99537300       4.11979565       1.96209669      -0.46432721       0.17058057       0.04341488       0.01491932      -0.17389250      -0.18008141       0.00597539
Al       5.86914086       6.04590611      -0.03740086      -1.06515740       1.45948599      -0.61170209       5.80378686       6.15915967      -0.09433326       0.07147968       0.45834304      -0.31595992       0.01814297       0.15218800      -0.12929367      -0.04445528
Al       3.96816156       4.03585830       4.02324556      -0.99434852       0.38351039       0.77533625       3.91162678       4.02371461       4.05182777      -0.09485252      -0.45907209      -0.22228236       0.05153156       0.30551096      -0.36934203      -0.30134328
Al       4.12813993       6.16514934       6.04523419      -0.41047204      -0.01668604       0.54566975       4.06626788       6.11353194       6.08745936      -0.63733805      -0.84337602       0.09001455       0.04176827      -0.16453867      -0.34641008      -0.01594603
Al       6.06549188       3.92416599       6.08838817      -0.32756440       0.72771087       0.42846795       6.01825863       4.01925185       6.10912891      -0.49160413       0.78011030       0.05111983       0.03401639      -0.09969566       0.26990681      -0.23797195
Al       5.98889133       5.82834313       4.09205931      -0.28975486      -0.51451583      -0.51679394       6.01447389       5.85392511       4.03109711       0.58250060       0.93711066      -0.49812209       0.03428220       0.42105783       0.48439587      -0.10502498
32
Lattice="8.1 0.0 0.0 0.0 8.1 0.0 0.0 0.0 8.1" Properties=species:S:1:pos:R:3:momenta:R:3:future_positions:R:3:future_momenta:R:3:energies:R:1:forces:R:3 energy=1.1279009310211343 free_energy=1.1279009310211343 stress="0.005735279349538671 0.0005943045537214631 0.0014025939233798053 0.0005943045537214631 0.006041793712153612 -0.00040343519409286846 0.0014025939233798053 -0.00040343519409286846 0.0034511145411136738" pbc="T T T"
Al       0.12716992       0.14059179      -0.12112587      -0.31526023       0.64780863      -1.35783034       0.04629418       0.12876230      -0.22167103      -0.95759286      -0.82728095      -0.29757505       0.03984405      -0.39940057      -0.45763583       0.12600034
Al       0.02858967       1.88339767       2.08360001       0.51404422       0.23006442       0.07032444       0.04818851       1.93115803       2.08841967      -0.12990647       0.55747755      -0.09304471       0.02164591      -0.23321686       0.19980483       0.04284755
Al       2.12210174       0.10183394       1.91048136       0.13411662      -1.23537518       0.70625795       2.07707930      -0.04741158       2.00330140      -0.97408391      -1.11801410       0.84717891       0.05299127      -0.30815466      -0.33688052       0.18223588
Al       2.01058692       2.00026383      -0.02927468       0.12832317      -0.34735888       0.62278339       2.01787744       2.00285283       0.01177266      -0.23506836       0.29141147       0.05067288       0.03464091       0.11293691       0.30469705      -0.09698492
Al       0.09004346      -0.16575441       3.99842953      -0.11580305      -1.33570297       0.79187823       0.04489661      -0.22633809       4.07773563      -0.65877964       0.29224633       0.46394988       0.02573250      -0.22035930       0.42395167       0.08573507
Al      -0.08482825       2.08830157       6.07485248       0.12221807      -0.93073471      -0.34291060      -0.05430392       1.98881267       5.96156530       0.35303062      -0.66507363      -1.57641522       0.02955979       0.12508391      -0.16383286      -0.47333532
Al       1.96506451       0.03952406       6.05567251       0.41019596      -0.48622510      -0.80919902       2.03147565      -0.02065168       5.94576132       0.76962821      -0.65908112      -1.01189318       0.02242906       0.13619318      -0.02964845      -0.23444306
Al       2.09317208       2.01317269       3.94790331      -0.94593168      -0.95029462       0.93867127       1.97289559       1.93626120       4.05254811      -1.05867708      -0.41185858       0.83383290       0.01596640      -0.22616223       0.12928092       0.10143366
Al      -0.26910685       3.81107390       0.15800493      -0.34209828       0.42787366      -1.30788587      -0.18816166       3.94085643       0.01056012       1.52064524       1.60489731      -1.28179134       0.07968707       0.82790763       0.65467205      -0.16478106
Al       0.03192181       6.22742972       1.87443024       0.34413813       0.34319840       0.23521552       0.06152309       6.21782462       1.88776074       0.02775406      -0.52709438      -0.05538428       0.01286986       0.04532243      -0.27037219       0.03071513
Al       2.05845878       4.15350846       1.84206552       0.81187468      -0.48581230       0.29262454       2.04875688       4.03807040       1.96029342      -1.02986930      -1.30892226       1.65826687       0.06724719      -0.48474621      -0.54562195       0.59893617
Al       1.98845792       5.87915102      -0.06969398      -0.50654354      -1.34044437      -0.15065494       1.88272093       5.81485433      -0.08439357      -1.09745633       0.18428612      -0.05387773       0.07617657      -0.44475859       0.44721904      -0.01932013
Al      -0.01517615       3.99863297       3.99382022       0.18819841       0.86170527      -0.36732923      -0.00398742       4.09577975       3.95603670       0.07602416       0.89956220      -0.16494469       0.00421480      -0.11190151       0.03295619      -0.11250762
Al       0.09804359       5.97850032       5.98966905      -0.49852809       1.43271658       1.02865327       0.01839264       6.09703762       6.11852171      -0.83736474       0.50921766       1.15348018       0.00910663      -0.25420493      -0.04036865       0.21161878
Al       2.02649408       3.89987995       5.99597950       1.20858423      -0.25702441       0.56012469       2.11981432       3.89321100       6.06832362       0.36848734       0.17618438       0.60265949       0.01945717      -0.11187393       0.09703600       0.17774710
Al       1.97714713       5.96993762       3.92901024       0.34968764       0.06678223      -1.21517134       2.00508130       6.00283742       3.87048959       0.18796939       0.44378052       0.35534194       0.04598354      -0.04512991       0.20979662       0.24490358
Al       3.89215669      -0.13199324      -0.02937379      -1.36224990       0.95976343      -0.35288306       3.82205736       0.02767872      -0.06198420       0.10812638       1.69631150      -0.18048802       0.04407152       0.41100055       0.45248192      -0.02455984
Al       4.05682124       2.13083990       1.98365617      -1.39371851       2.24016229      -1.45655806       3.95194616       2.28529555       1.86889551      -0.34938954       0.13842713      -0.27129446       0.01409122       0.15406665      -0.19803473      -0.02190025
Al       6.05587238      -0.01216925       1.82729213       0.18021948      -0.68889572       0.67973983       6.05134983      -0.05573148       1.92192507      -0.22593080      -0.13460462       0.91402153       0.00612135      -0.14111577       0.17802154       0.24569002
Al       6.06508331       2.01229978      -0.14905867       0.80071559      -0.12548919      -0.26581432       6.06675162       1.92963723      -0.11184531      -0.57299344      -1.06870355       0.87711181       0.08034584      -0.55683710      -0.54429454       0.40290364
Al       3.90904643      -0.02317191       3.98476791       0.87425911       0.52915986      -0.39933284       4.03187896       0.02217832       3.96832114       1.33011215       0.36843944       0.07049679       0.02560880       0.17611297      -0.12229832       0.15878281
Al       4.12181053       1.99875098       5.94805197       0.41512224      -0.18099397       0.25760010       4.11214165       1.96514725       6.03093712      -0.37691697      -0.41461738       0.98470474       0.04335485      -0.46699169      -0.07397429       0.48626862
Al       6.03922137      -0.10401022       5.98594086       0.99558153      -0.28689016      -0.65119959       6.13840721      -0.11520796       5.93344964       0.58431033       0.23033783      -0.21065889       0.00121487       0.08678777       0.03377278       0.05901562
Al       5.87098915       1.96920612       4.06532751       0.48213412       0.79882762      -1.09255758       6.00176552       2.06335707       3.90724010       1.62270364       0.81719447      -1.53813836       0.04056299       0.65810368       0.10511103      -0.38517222
Al       3.93620562       3.96380326       0.02075202      -0.69905360      -0.36722958       0.72848308       3.96179047       3.97118699       0.03093908       1.07596510       0.67204559      -0.63274693       0.04857832       0.57745783       0.15841453      -0.27297500
Al       3.94477175       6.12028830       2.08195248      -1.03635014       0.82951722       0.21672435       3.89078092       6.18385791       2.01643998       0.21484354       0.13581585      -1.34179344       0.05052010       0.18301161      -0.03601436      -0.54736993
Al       6.04115783       4.24100040       2.10589417      -0.42131137       0.88801712       1.06381532       5.98631708       4.26281157       2.15925667      -0.45673017      -0.39470576      -0.22887064       0.05007239      -0.13894744      -0.46929846      -0.23157114
Al       6.13666748       6.11442069      -0.08260836      -1.39645788      -1.17878885      -0.56315663       5.98048444       6.00047991      -0.10179046      -1.26941552      -0.68882981       0.43400966       0.01809255      -0.13514134      -0.08153873       0.07920436
Al       3.95153361       4.16430390       4.04474672      -0.12562803      -0.27533427      -0.06280508       3.97289694       4.10931340       4.05382788       0.42319047      -0.65051676       0.22990191       0.02160079       0.26122289      -0.20924977       0.07599428
Al       3.87318216       6.09147076       6.23644984       1.08799940       0.32689519       1.51002087       4.01856523       6.09106504       6.27683024       1.23897010      -0.23487460      -0.74993359       0.04560273       0.34818556      -0.22521827      -0.72139222
Al       6.00581264       4.05401863       6.18833080      -0.47495039       0.14195452       0.12139957       5.95220154       4.09687998       6.10829818      -0.36637689       0.36681947      -1.50672337       0.02938861      -0.06831186       0.31875927      -0.56367176
Al       5.97040663       6.14859922       3.88946102       0.58647207      -0.25185216       0.57097207       6.05100083       6.12523569       4.02764108       0.69479128      -0.28027735       1.71994439       0.05112126       0.24386035       0.05830645       0.55995185
32
Lattice="8.1 0.0 0.0 0.0 8.1 0.0 0.0 0.0 8.1" Properties=species:S:1:pos:R:3:momenta:R:3:future_positions:R:3:future_momenta:R:3:energies:R:1:forces:R:3 energy=1.0549307138124933 free_energy=1.0549307138124933 stress="0.004861972779986932 0.0016201785872336262 -0.00026909167983675113 0.0016201785872336262 0.005969409179664236 0.0001803889129824654 -0.00026909167983675113 0.0001803889129824654 0.00468425551084271" pbc="T T T"
Al       0.04629418       0.12876230      -0.22167103       0.95759286       0.82728095       0.29757505       0.12716992       0.14059179      -0.12112587       0.31526023      -0.64780863       1.35783034       0.03541209       0.00127436      -0.38772895       0.49705176
Al       0.04818851       1.93115803       2.08841967       0.12990647      -0.55747755       0.09304471       0.02858967       1.88339767       2.08360001      -0.51404422      -0.23006442      -0.07032444       0.00283226      -0.18529116       0.02598369      -0.17364284
Al       2.07707930      -0.04741158       2.00330140       0.97408391       1.11801410      -0.84717891       2.12210174       0.10183394       1.91048136      -0.13411662       1.23537518      -0.70625795       0.05763265      -0.33056054       0.39695364      -0.10279624
Al       2.01787744       2.00285283       0.01177266       0.23506836      -0.29141147      -0.05067288       2.01058692       2.00026383      -0.02927468      -0.12832317       0.34735888      -0.62278339       0.04243925      -0.34189312       0.11435634      -0.24927169
Al       0.04489661      -0.22633809       4.07773563       0.65877964      -0.29224633      -0.46394988       0.09004346      -0.16575441       3.99842953       0.11580305       1.33570297      -0.79187823       0.05287638      -0.11444799       0.54961932      -0.30045303
Al      -0.05430392       1.98881267       5.96156530      -0.35303062       0.66507363       1.57641522      -0.08482825       2.08830157       6.07485248      -0.12221807       0.93073471       0.34291060       0.01392524      -0.03456885       0.28147192      -0.16475870