4
Lattice="3.6 0.0 0.0 0.0 3.6 0.0 0.0 0.0 3.6" Properties=species:S:1:pos:R:3:forces:R:3 energy=-0.025404088922348578 stress="0.006881151804001431 1.958664971938017e-05 5.0149604541784665e-05 1.958664971938017e-05 0.006935179627017059 -1.253301669323055e-05 5.0149604541784665e-05 -1.253301669323055e-05 0.006842645137974028" pbc="T T T"
Cu       0.00496714      -0.00138264       0.00647689       0.04358495      -0.02010415      -0.07928837
Cu       0.01523030       1.79765847       1.79765863      -0.03511570       0.04602285       0.02755255
Cu       1.81579213       0.00767435       1.79530526      -0.04397910      -0.08950375       0.04563905
Cu       1.80542560       1.79536582      -0.00465730       0.03550985       0.06358505       0.00609677
4
Lattice="3.6 0.0 0.0 0.0 3.6 0.0 0.0 0.0 3.6" Properties=species:S:1:pos:R:3:forces:R:3 energy=-0.025404088922348578 stress="0.006881151804001431 1.958664971938017e-05 5.0149604541784665e-05 1.958664971938017e-05 0.006935179627017059 -1.253301669323055e-05 5.0149604541784665e-05 -1.253301669323055e-05 0.006842645137974028" pbc="T T T"
Cu       0.00496714      -0.00138264       0.00647689       0.04358495      -0.02010415      -0.07928837
Cu       0.01523030       1.79765847       1.79765863      -0.03511570       0.04602285       0.02755255
Cu       1.81579213       0.00767435       1.79530526      -0.04397910      -0.08950375       0.04563905
Cu       1.80542560       1.79536582      -0.00465730       0.03550985       0.06358505       0.00609677
4
Lattice="3.6 0.0 0.0 0.0 3.6 0.0 0.0 0.0 3.6" Properties=species:S:1:pos:R:3:forces:R:3 energy=-0.025404088922348578 stress="0.006881151804001431 1.958664971938017e-05 5.0149604541784665e-05 1.958664971938017e-05 0.006935179627017059 -1.253301669323055e-05 5.0149604541784665e-05 -1.253301669323055e-05 0.006842645137974028" pbc="T T T"
Cu       0.00496714      -0.00138264       0.00647689       0.04358495      -0.02010415      -0.07928837
Cu       0.01523030       1.79765847       1.79765863      -0.03511570       0.04602285       0.02755255
Cu       1.81579213       0.00767435       1.79530526      -0.04397910      -0.08950375       0.04563905
Cu       1.80542560       1.79536582      -0.00465730       0.03550985       0.06358505       0.00609677
4
Lattice="3.6 0.0 0.0 0.0 3.6 0.0 0.0 0.0 3.6" Properties=species:S:1:pos:R:3:forces:R:3 energy=-0.025404088922348578 stress="0.006881151804001431 1.958664971938017e-05 5.0149604541784665e-05 1.958664971938017e-05 0.006935179627017059 -1.253301669323055e-05 5.0149604541784665e-05 -1.253301669323055e-05 0.006842645137974028" pbc="T T T"
Cu       0.00496714      -0.00138264       0.00647689       0.04358495      -0.02010415      -0.07928837
Cu       0.01523030       1.79765847       1.79765863      -0.03511570       0.04602285       0.02755255
Cu       1.81579213       0.00767435       1.79530526      -0.04397910      -0.08950375       0.04563905
Cu       1.80542560       1.79536582      -0.00465730       0.03550985       0.06358505       0.00609677
4
Lattice="3.6 0.0 0.0 0.0 3.6 0.0 0.0 0.0 3.6" Properties=species:S:1:pos:R:3:forces:R:3 energy=-0.025404088922348578 stress="0.006881151804001431 1.958664971938017e-05 5.0149604541784665e-05 1.958664971938017e-05 0.006935179627017059 -1.253301669323055e-05 5.0149604541784665e-05 -1.253301669323055e-05 0.006842645137974028" pbc="T T T"
Cu       0.00496714      -0.00138264       0.00647689       0.04358495      -0.02010415      -0.07928837
Cu       0.01523030       1.79765847       1.79765863      -0.03511570       0.04602285       0.02755255
Cu       1.81579213       0.00767435       1.79530526      -0.04397910      -0.08950375       0.04563905
Cu       1.80542560       1.79536582      -0.00465730       0.03550985       0.06358505       0.00609677
2
Properties=species:S:1:pos:R:3:forces:R:3 energy=6.769571544249273 stress="nan nan nan nan nan nan nan nan nan" pbc="F F F"
Cu       0.00000000       0.00000000       0.00000000       0.23842690       0.23842690       0.23842690
Cu       2.50000000       2.50000000       2.50000000      -0.23842690      -0.23842690      -0.23842690
2
Properties=species:S:1:pos:R:3:forces:R:3 energy=6.79264846726743 stress="nan nan nan nan nan nan nan nan nan" pbc="F F F"
Cu       0.00000000       0.00000000       0.00000000       0.22309926       0.21451852       0.21451852
Cu       2.60000000       2.50000000       2.50000000      -0.22309926      -0.21451852      -0.21451852
2
Properties=species:S:1:pos:R:3:forces:R:3 energy=6.814192172860935 stress="nan nan nan nan nan nan nan nan nan" pbc="F F F"
Cu       0.00000000       0.00000000       0.00000000       0.20779404       0.19240189       0.19240189
Cu       2.70000000       2.50000000       2.50000000      -0.20779404      -0.19240189      -0.19240189
2
Properties=species:S:1:pos:R:3:forces:R:3 energy=6.834213907632799 stress="nan nan nan nan nan nan nan nan nan" pbc="F F F"
Cu       0.00000000       0.00000000       0.00000000       0.19268692       0.17204190       0.17204190
Cu       2.80000000       2.50000000       2.50000000      -0.19268692      -0.17204190      -0.17204190
2
Properties=species:S:1:pos:R:3:forces:R:3 energy=6.8527411681893335 stress="nan nan nan nan nan nan nan nan nan" pbc="F F F"
Cu       0.00000000       0.00000000       0.00000000       0.17792727       0.15338558       0.15338558
Cu       2.90000000       2.50000000       2.50000000      -0.17792727      -0.15338558      -0.15338558
16
Lattice="5.105310960166873 0.0 0.0 2.5526554800834367 4.421328985723636 0.0 0.0 0.0 26.252703415323648" Properties=species:S:1:pos:R:3:tags:I:1:forces:R:3 energy=2.841030235460635 stress="nan nan nan nan nan nan nan nan nan" pbc="T T F"
Cu       0.00496714      -0.00138264      10.00647689        4       0.04143195       0.00276465       0.09814269
Cu       2.56788578      -0.00234153       9.99765863        4      -0.05775198       0.00891295       0.06388782
Cu       1.29211987       2.21833884       9.99530526        4      -0.04296629      -0.07094630       0.12078893
Cu       3.83440882       2.20603032       9.99534270        4       0.01657027       0.02723934       0.15046333
Cu       1.27874736       0.71775536      12.06698529        3      -0.05626396       0.11019841       0.03274186
Cu       3.82336034       0.72675985      12.08737695        3       0.06381864       0.05624252      -0.09971269
Cu       2.54357524       2.93342962      12.09889096        3       0.02760426       0.01835821      -0.14261424
Cu       5.10305320       2.94822794      12.06998699        3       0.00289772      -0.10263638       0.02750292
Cu      -0.00544383       1.47488555      14.15695901        2       0.05378919       0.08390201       0.06303055
Cu       2.55641246       1.46776994      14.16555201        2      -0.08668013       0.08534459       0.06130098
Cu       1.27031067       3.70296360      14.16833397        2      -0.03007734      -0.17213267       0.02293674
Cu       3.81840611       3.69266627      14.15626051        2       0.07791029      -0.07715011       0.11156211
Cu       0.00208864      -0.01959670      16.23942155        1      -0.00459500       0.11907681      -0.08007743
Cu       2.55462409       0.00738467      16.25441710        1      -0.03295618      -0.07796099      -0.12700791
Cu       1.27517126       2.20765346      16.23791820        1      -0.06351331      -0.01388304      -0.10798612
Cu       3.82178478       2.20605811      16.26327464        1       0.09078188       0.00267000      -0.19495955
16
Lattice="5.105310960166873 0.0 0.0 2.5526554800834367 4.421328985723636 0.0 0.0 0.0 26.252703415323648" Properties=species:S:1:pos:R:3:tags:I:1:forces:R:3 energy=2.841030235460635 stress="nan nan nan nan nan nan nan nan nan" pbc="T T F"
Cu       0.00496714      -0.00138264      10.00647689        4       0.04143195       0.00276465       0.09814269
Cu       2.56788578      -0.00234153       9.99765863        4      -0.05775198       0.00891295       0.06388782
Cu       1.29211987       2.21833884       9.99530526        4      -0.04296629      -0.07094630       0.12078893
Cu       3.83440882       2.20603032       9.99534270        4       0.01657027       0.02723934       0.15046333
Cu       1.27874736       0.71775536      12.06698529        3      -0.05626396       0.11019841       0.03274186
Cu       3.82336034       0.72675985      12.08737695        3       0.06381864       0.05624252      -0.09971269
Cu       2.54357524       2.93342962      12.09889096        3       0.02760426       0.01835821      -0.14261424
Cu       5.10305320       2.94822794      12.06998699        3       0.00289772      -0.10263638       0.02750292
Cu      -0.00544383       1.47488555      14.15695901        2       0.05378919       0.08390201       0.06303055
Cu       2.55641246       1.46776994      14.16555201        2      -0.08668013       0.08534459       0.06130098
Cu       1.27031067       3.70296360      14.16833397        2      -0.03007734      -0.17213267       0.02293674
Cu       3.81840611       3.69266627      14.15626051        2       0.07791029      -0.07715011       0.11156211
Cu       0.00208864      -0.01959670      16.23942155        1      -0.00459500       0.11907681      -0.08007743
Cu       2.55462409       0.00738467      16.25441710        1      -0.03295618      -0.07796099      -0.12700791
Cu       1.27517126       2.20765346      16.23791820        1      -0.06351331      -0.01388304      -0.10798612
Cu       3.82178478       2.20605811      16.26327464        1       0.09078188       0.00267000      -0.19495955
16
Lattice="5.105310960166873 0.0 0.0 2.5526554800834367 4.421328985723636 0.0 0.0 0.0 26.252703415323648" Properties=species:S:1:pos:R:3:tags:I:1:forces:R:3 energy=2.841030235460635 stress="nan nan nan nan nan nan nan nan nan" pbc="T T F"
Cu       0.00496714      -0.00138264      10.00647689        4       0.04143195       0.00276465       0.09814269
Cu       2.56788578      -0.00234153       9.99765863        4      -0.05775198       0.00891295       0.06388782
Cu       1.29211987       2.21833884       9.99530526        4      -0.04296629      -0.07094630       0.12078893
Cu       3.83440882       2.20603032       9.99534270        4       0.01657027       0.02723934       0.15046333
Cu       1.27874736       0.71775536      12.06698529        3      -0.05626396       0.11019841       0.03274186
Cu       3.82336034       0.72675985      12.08737695        3       0.06381864       0.05624252      -0.09971269
Cu       2.54357524       2.93342962      12.09889096        3       0.02760426       0.01835821      -0.14261424
Cu       5.10305320       2.94822794      12.06998699        3       0.00289772      -0.10263638       0.02750292
Cu      -0.00544383       1.47488555      14.15695901        2       0.05378919       0.08390201       0.06303055
Cu       2.55641246       1.46776994      14.16555201        2      -0.08668013       0.08534459       0.06130098
Cu       1.27031067       3.70296360      14.16833397        2      -0.03007734      -0.17213267       0.02293674
Cu       3.81840611       3.69266627      14.15626051        2       0.07791029      -0.07715011       0.11156211
Cu       0.00208864      -0.01959670      16.23942155        1      -0.00459500       0.11907681      -0.08007743
Cu       2.55462409       0.00738467      16.25441710        1      -0.03295618      -0.07796099      -0.12700791
Cu       1.27517126       2.20765346      16.23791820        1      -0.06351331      -0.01388304      -0.10798612
Cu       3.82178478       2.20605811      16.26327464        1       0.09078188       0.00267000      -0.19495955
16
Lattice="5.105310960166873 0.0 0.0 2.5526554800834367 4.421328985723636 0.0 0.0 0.0 26.252703415323648" Properties=species:S:1:pos:R:3:tags:I:1:forces:R:3 energy=2.841030235460635 stress="nan nan nan nan nan nan nan nan nan" pbc="T T F"
Cu       0.00496714      -0.00138264      10.00647689        4       0.04143195       0.00276465       0.09814269
Cu       2.56788578      -0.00234153       9.99765863        4      -0.05775198       0.00891295       0.06388782
Cu       1.29211987       2.21833884       9.99530526        4      -0.04296629      -0.07094630       0.12078893
Cu       3.83440882       2.20603032       9.99534270        4       0.01657027       0.02723934       0.15046333
Cu       1.27874736       0.71775536      12.06698529        3      -0.05626396       0.11019841       0.03274186
Cu       3.82336034       0.72675985      12.08737695        3       0.06381864       0.05624252      -0.09971269
Cu       2.54357524       2.93342962      12.09889096        3       0.02760426       0.01835821      -0.14261424
Cu       5.10305320       2.94822794      12.06998699        3       0.00289772      -0.10263638       0.02750292
Cu      -0.00544383       1.47488555      14.15695901        2       0.05378919       0.08390201       0.06303055
Cu       2.55641246       1.46776994      14.16555201        2      -0.08668013       0.08534459       0.06130098
Cu       1.27031067       3.70296360      14.16833397        2      -0.03007734      -0.17213267       0.02293674
Cu       3.81840611       3.69266627      14.15626051        2       0.07791029      -0.07715011       0.11156211
Cu       0.00208864      -0.01959670      16.23942155        1      -0.00459500       0.11907681      -0.08007743
Cu       2.55462409       0.00738467      16.25441710        1      -0.03295618      -0.07796099      -0.12700791
Cu       1.27517126       2.20765346      16.23791820        1      -0.06351331      -0.01388304      -0.10798612
Cu       3.82178478       2.20605811      16.26327464        1       0.09078188       0.00267000      -0.19495955
16
Lattice="5.105310960166873 0.0 0.0 2.5526554800834367 4.421328985723636 0.0 0.0 0.0 26.252703415323648" Properties=species:S:1:pos:R:3:tags:I:1:forces:R:3 energy=2.841030235460635 stress="nan nan nan nan nan nan nan nan nan" pbc="T T F"
Cu       0.00496714      -0.00138264      10.00647689        4       0.04143195       0.00276465       0.09814269
Cu       2.56788578      -0.00234153       9.99765863        4      -0.05775198       0.00891295       0.06388782
Cu       1.29211987       2.21833884       9.99530526        4      -0.04296629      -0.07094630       0.12078893
Cu       3.83440882       2.20603032       9.99534270        4       0.01657027       0.02723934       0.15046333
Cu       1.27874736       0.71775536      12.06698529        3      -0.05626396       0.11019841       0.03274186
Cu       3.82336034       0.72675985      12.08737695        3       0.06381864       0.05624252      -0.09971269
Cu       2.54357524       2.93342962      12.09889096        3       0.02760426       0.01835821      -0.14261424
Cu       5.10305320       2.94822794      12.06998699        3       0.00289772      -0.10263638       0.02750292
Cu      -0.00544383       1.47488555      14.15695901        2       0.05378919       0.08390201       0.06303055
Cu       2.55641246       1.46776994      14.16555201        2      -0.08668013       0.08534459       0.06130098
Cu       1.27031067       3.70296360      14.16833397        2      -0.03007734      -0.17213267       0.02293674
Cu       3.81840611       3.69266627      14.15626051        2       0.07791029      -0.07715011       0.11156211
Cu       0.00208864      -0.01959670      16.23942155        1      -0.00459500       0.11907681      -0.08007743
Cu       2.55462409       0.00738467      16.25441710        1      -0.03295618      -0.07796099      -0.12700791
Cu       1.27517126       2.20765346      16.23791820        1      -0.06351331      -0.01388304      -0.10798612
Cu       3.82178478       2.20605811      16.26327464        1       0.09078188       0.00267000      -0.19495955
