5
Properties=species:S:1:pos:R:3 energy=-40.42837398366376 pbc="F F F"
C       -0.01269814       1.08580416       0.00800100
H        0.00215042      -0.00603132       0.00197612
H        1.01173084       1.46375116       0.00027657
H       -0.54081507       1.44752661      -0.87664372
H       -0.52381363       1.43793264       0.90639729
4
Properties=species:S:1:pos:R:3 energy=-56.59591294691739 pbc="F F F"
N       -0.04042605       1.02410775       0.06256380
H        0.01725746       0.01254521      -0.02737716
H        0.91578937       1.35874519      -0.02875776
H       -0.52027774       1.34353213      -0.77554261
3
Properties=species:S:1:pos:R:3 energy=-76.42908911921836 pbc="F F F"
O       -0.03436050       0.97753957       0.00760159
H        0.06476649       0.02057220       0.00153463
H        0.87179037       1.30079240       0.00069313
4
Properties=species:S:1:pos:R:3 energy=-77.34621438158375 pbc="F F F"
C        0.59953949       0.00000000       1.00000000
C       -0.59953949       0.00000000       1.00000000
H       -1.66163859       0.00000000       1.00000000
H        1.66163859       0.00000000       1.00000000
3
Properties=species:S:1:pos:R:3 energy=-93.49910244686006 pbc="F F F"
C       -0.01332393       1.13246572       0.00827589
N        0.00231072      -0.01915859       0.00192873
H       -0.02780270       2.19894930       0.01415379
4
Properties=species:S:1:pos:R:3 energy=-114.50419517583174 pbc="F F F"
C       -0.01397770       1.18021143       0.00775250
O        0.00231399      -0.01966366       0.00216107
H        0.91496029       1.78951117       0.00395656
H       -0.95910972       1.76401798       0.01718284
8
Properties=species:S:1:pos:R:3 energy=-79.69135158832796 pbc="F F F"
C       -0.01870400       1.52558201       0.01043281
C        0.00210374      -0.00388191       0.00199882
H        0.99487275       1.93974324       0.00294120
H       -0.54207611       1.92361063      -0.86511735
H       -0.52524112       1.91417308       0.90002399
H        0.52548654      -0.40190784       0.87754395
H       -1.01147651      -0.41803380       0.00950849
H        0.50862619      -0.39247040      -0.88760117
6
Properties=species:S:1:pos:R:3 energy=-115.67804339230955 pbc="F F F"
C       -0.00828817       1.39046978      -0.00560069
O       -0.00797038      -0.02504537       0.02030606
H        1.00658338       1.81556366       0.00348335
H       -0.54657475       1.79916975      -0.87390126
H       -0.52288871       1.72555240       0.89907326
H        0.44142019      -0.33354425      -0.77152059
7
Properties=species:S:1:pos:R:3 energy=-116.60180162341098 pbc="F F F"
C       -0.01782102       1.46435788       0.01009397
C        0.00208816       0.00950777       0.00201200
C        0.01834085      -1.19180518      -0.00450508
H        0.99782210       1.87425349       0.00260606
H       -0.54220434       1.85801178      -0.86721192
H       -0.52533306       1.84834356       0.90148138
H        0.03231658      -2.25314823      -0.01025999
6
Properties=species:S:1:pos:R:3 energy=-132.75490219377338 pbc="F F F"
C       -0.01788629       1.46712787       0.01011311
C        0.00173819       0.01035260       0.00207588
N        0.01765235      -1.14452926      -0.00420445
H        1.00202941       1.86089927       0.00245401
H       -0.54398848       1.84479901      -0.87075460
H       -0.52707783       1.83518166       0.90486329
7
Properties=species:S:1:pos:R:3 energy=-153.761872135185 pbc="F F F"
C       -0.00294482       1.50991366       0.00867278
C        0.02608284       0.00327563      -0.03745912
O        0.94228801      -0.65507035      -0.45682576
H        0.92278802       1.92634242      -0.39146557
H       -0.86201540       1.87852481      -0.56479538
H       -0.15050638       1.84393383       1.04289100
H       -0.89443009      -0.48643408       0.35774865
6
Properties=species:S:1:pos:R:3 energy=-169.91940777609514 pbc="F F F"
N       -0.02589986       1.34614561       0.00889391
C        0.04646728      -0.01174341       0.00120425
O        1.07183520      -0.65258782      -0.01113313
H        0.82535497       1.88504948       0.00373769
H       -0.90837680       1.82679638       0.01891992
H       -0.96144100      -0.47500376       0.00807391
11
Properties=species:S:1:pos:R:3 energy=-118.95126837314545 pbc="F F F"
C       -0.03113825       1.54081582       0.03192126
C        0.01215347       0.01092235      -0.01603259
C        0.72169129      -0.52583353      -1.26230570
H        0.97955987       1.96459116       0.03098367
H       -0.55840223       1.94831192      -0.83816075
H       -0.54252252       1.90153531       0.93005671
H        0.51522791      -0.36840234       0.88231134
H       -1.01070641      -0.38456999       0.02051783
H        1.75851210      -0.17376585      -1.30871516
H        0.74087192      -1.62024959      -1.27516511
H        0.22023351      -0.19051179      -2.17729020
9
Properties=species:S:1:pos:R:3 energy=-154.93831867676175 pbc="F F F"
C       -0.00860504       1.50203829      -0.00681217
C        0.01099310      -0.01764877      -0.01377035
O        0.68088841      -0.44041803      -1.19313210
H        1.01153334       1.89662030      -0.01920155
H       -0.53159862       1.88076109      -0.88974659
H       -0.51674572       1.87611771       0.88710739
H        0.52377121      -0.38912295       0.88824082
H       -1.02027544      -0.40507261       0.01690670
H        0.69529573      -1.40179568      -1.20148495
9
Properties=species:S:1:pos:R:3 energy=-154.9273484643228 pbc="F F F"
C       -0.01482147       1.39241234       0.00567104
O       -0.00471537      -0.01360660       0.01459658
C        0.63794893      -0.55329676      -1.11358232
H        1.00528358       1.81015807       0.00465631
H       -0.54689560       1.79343530      -0.87251051
H       -0.53002895       1.72291969       0.91101696
H        0.13993792      -0.25599333      -2.05098375
H        1.69265275      -0.23868382      -1.17477743
H        0.59959435      -1.64180161      -1.02407616
9
Properties=species:S:1:pos:R:3 energy=-117.7813921727021 pbc="F F F"
C       -0.01193280       1.51433198       0.01031700
C        1.30299118       0.77886562      -0.00617842
C        0.00867174       0.00767042       0.00201032
H       -0.30541464       2.01702117       0.92533239
H       -0.32275498       2.02680156      -0.89347839
H        1.88493396       0.79145020      -0.92119393
H        1.90226631       0.78165391       0.89766373
H       -0.27088043      -0.51289125       0.91137474
H       -0.28821983      -0.50310409      -0.90740824
7
Properties=species:S:1:pos:R:3 energy=-153.76084125469677 pbc="F F F"
C        0.01537720       1.41764380       0.00956287
C        1.26478161       0.64923984      -0.00655044
O       -0.00024018      -0.00771006       0.00204055
H       -0.31763326       1.88586598       0.93475751
H       -0.33527583       1.89576673      -0.90397578
H        1.83246682       0.56256848      -0.93193290
H        1.85008258       0.55267938       0.90680147
10
Properties=species:S:1:pos:R:3 energy=-193.01687569711424 pbc="F F F"
C       -0.00310189       1.48050328      -0.17259867
C       -0.04527202      -0.02887059       0.00139493
C        1.29705800      -0.72194415       0.16889042
O       -1.08643172      -0.64273343       0.00630393
H        0.59403529       1.74668579      -1.05225043
H       -1.01540407       1.87034023      -0.28382265
H        0.48099600       1.95070605       0.69099376
H        1.82512144      -0.32470731       1.04328658
H        1.14892507      -1.79597689       0.28554393
H        1.93682635      -0.52949692      -0.69995403
9
Properties=species:S:1:pos:R:3 energy=-209.1755257951248 pbc="F F F"
C        0.00679889       1.49969736      -0.02567030
C       -0.02740385      -0.01752051      -0.14894811
N        1.17826667      -0.63324298       0.05691721
O       -1.03721965      -0.63980649      -0.40727572
H        0.91390280       1.92923755      -0.46100067
H       -0.87080896       1.91124186      -0.52345176
H       -0.02826124       1.78517271       1.03149125
H        1.98405139      -0.13175861       0.38674906
H        1.19049421      -1.63919563       0.10006209
8
Properties=species:S:1:pos:R:3 energy=-225.335372430874 pbc="F F F"
N        0.03605270       1.36077873      -0.12416403
C       -0.02591138      -0.02076560       0.00200645
N        1.21968479      -0.62334220       0.11963222
O       -1.06822866      -0.64174597       0.00865573
H        0.80749439       1.83455148       0.32144915
H       -0.85825775       1.80373500       0.02243770
H        1.99927148      -0.17303054      -0.33602496
H        1.18204327      -1.62147901      -0.02109234
14
Properties=species:S:1:pos:R:3 energy=-158.2083148124739 pbc="F F F"
C       -0.03215888       1.54021598       0.01074456
C        0.03381741       0.00745852       0.00180716
C        0.71375572      -0.50856404      -1.27296949
C        0.73848999      -0.52220886       1.25750907
H        0.97522736       1.97414341       0.00528362
H       -0.56196769       1.92232326      -0.86835418
H       -0.54817239       1.91268414       0.90208039
H       -0.99752525      -0.37310578       0.00977297
H        1.75070021      -0.15586784      -1.33269631
H        0.73446691      -1.60328288      -1.29939696
H        0.19367011      -0.16085589      -2.17195508
H        0.23611990      -0.18382017       2.17005260
H        0.75964083      -1.61713153       1.27226101
H        1.77635866      -0.16985318       1.30053019
12
Properties=species:S:1:pos:R:3 energy=-194.1956334960471 pbc="F F F"
C       -0.03315871       1.54782566      -0.00438815
C       -0.01108534       0.01859095       0.01676117
C        0.70938384      -0.53596711       1.23978444
O       -1.33219841      -0.51712554       0.05236057
H        0.98215692       1.95715900      -0.03182225
H       -0.56388100       1.92087623      -0.88845865
H       -0.54082548       1.93340945       0.88575489
H        0.51042122      -0.33767241      -0.88819176
H        0.22240492      -0.18785860       2.15650245
H        0.68242024      -1.62887638       1.23305141
H        1.75434301      -0.21246950       1.25524188
H       -1.81818681      -0.15577435      -0.69553962
6
Properties=species:S:1:pos:R:3 energy=-153.51342386612694 pbc="F F F"
C        0.68098021       0.00000000       0.00000000
C       -0.68098021       0.00000000       0.00000000
C       -1.88766603       0.00000000       0.00000000
C        1.88766603       0.00000000       0.00000000
H       -2.94960000       0.00000000       0.00000000
H        2.94960000       0.00000000       0.00000000
5
Properties=species:S:1:pos:R:3 energy=-169.66696661889353 pbc="F F F"
C        0.01510390       0.00000000       1.00000000
C        1.38233149       0.00000000       1.00000000
C       -1.18862525       0.00000000       1.00000000
H       -2.25177201       0.00000000       1.00000000
N        2.54296187       0.00000000       1.00000000
4
Properties=species:S:1:pos:R:3 energy=-185.8203762509031 pbc="F F F"
N        0.01745734      -1.16134217      -0.00415342
C        0.00253212      -0.00344278       0.00179939
C       -0.01611419       1.37220987       0.00934873
N       -0.03264302       2.53008276       0.01609090
6
Properties=species:S:1:pos:R:3 energy=-190.6738191826082 pbc="F F F"
O       -0.06776120      -0.04233838       0.00282489
C       -0.00562945       1.16382879       0.00743862
C        1.22985272       1.91339997       0.00028781
C        2.23625322       2.57430970      -0.00529277
H       -0.91670701       1.79467546       0.01781352
H        3.13429662       3.14370267      -0.01037656
5
Properties=species:S:1:pos:R:3 energy=-206.82709610477625 pbc="F F F"
O       -0.04055978      -0.03799144       0.00266513
C       -0.01768870       1.16193251       0.00746008
C        1.23315534       1.93381336       0.00043371
N        2.19857378       2.57055097      -0.00483320
H       -0.92627534       1.78959196       0.01764859
6
Properties=species:S:1:pos:R:3 energy=-227.83401567182878 pbc="F F F"
O        0.00337122      -0.03146586       0.00157206
C       -0.01713174       1.17081409       0.00676444
C        1.26555783       1.99719410      -0.00007703
O        1.24507069       3.19946589       0.00681275
H       -0.94690483       1.77678142       0.01852668
H        2.19534410       1.39121374      -0.01006739
10
Properties=species:S:1:pos:R:3 energy=-155.85748206180227 pbc="F F F"
C       -0.01787959       1.46676893       0.01011180
C        0.00186644       0.01072913       0.00211109
C        0.01819704      -1.19272861      -0.00450723
C        0.03795170      -2.64876793      -0.01251193
H        0.86460312       1.87589979       0.51479719
H       -0.03217624       1.87210581      -1.00791002
H       -0.90233115       1.85185524       0.53003953
H       -0.83477011      -3.06339007       0.50451436
H        0.03276422      -3.04315564      -1.03491223
H        0.93213486      -3.03931642       0.48626606
10
Properties=species:S:1:pos:R:3 energy=-155.86202269220013 pbc="F F F"
C       -0.03095840       1.54775025       0.03167945
C        0.01485375       0.00962471      -0.02082154
C        0.69099073      -0.49954575      -1.20857624
C        1.25222275      -0.89514467      -2.19527879
H        0.97899300       1.96621609       0.03373834
H       -0.56082354       1.95002902      -0.83580745
H       -0.54576708       1.88225519       0.93709062
H        0.51920135      -0.37425398       0.87496224
H       -1.00644802      -0.39030838       0.01340632
H        1.74594541      -1.25604187      -3.06299415
9
Properties=species:S:1:pos:R:3 energy=-172.01520451505468 pbc="F F F"
C       -0.02522005       1.54773054       0.02133370
C        0.01183939       0.00999278      -0.01556702
C        0.68915114      -0.50836846      -1.20331488
N        1.22565733      -0.90360846      -2.14737482
H        0.98571620       1.96212990       0.02370153
H       -0.55522192       1.94599662      -0.84711771
H       -0.53962556       1.88294354       0.92536604
H        0.52481910      -0.38226048       0.86933355
H       -1.00453542      -0.39832109       0.00530071
8
Properties=species:S:1:pos:R:3 energy=-188.17128260875586 pbc="F F F"
N       -0.03608099       1.48762533       0.03678072
C       -0.01039471       0.02517605      -0.01506608
C       -1.37180956      -0.52108920       0.02739272
N       -2.44026695      -0.95956444       0.03370519
H        0.91729752       1.83547547       0.05202682
H       -0.47162178       1.85677205      -0.80275569
H        0.48946161      -0.40880401      -0.89715168
H        0.52827150      -0.34533338       0.86469547
8
Properties=species:S:1:pos:R:3 energy=-191.8497758271177 pbc="F F F"
O       -0.02013197       1.45738137       0.01010195
C        0.00168478       0.03579980       0.00224736
C       -1.36366691      -0.47481101       0.01255056
C       -2.47902835      -0.91970202       0.02082451
H        0.89446911       1.75736553       0.00327363
H        0.51979028      -0.35175413      -0.88980302
H        0.53670458      -0.36127661       0.88000894
H       -3.46773502      -1.30737009       0.02818120
7
Properties=species:S:1:pos:R:3 energy=-208.0028177815803 pbc="F F F"
O       -0.03738221       1.44547841       0.01010769
C        0.01292906       0.03441661       0.00209165
C       -1.35747452      -0.48874523       0.01239738
N       -2.42135277      -0.93685184       0.02016053
H        0.86898057       1.76972949       0.00417577
H        0.51692713      -0.36329790      -0.89215814
H        0.53387616      -0.37278749       0.88223921
10
Properties=species:S:1:pos:R:3 energy=-193.02218181903672 pbc="F F F"
C        0.16879340       1.52513042      -0.15747056
C       -0.18737625       0.06194763       0.14679374
C        0.50917645      -0.43996215       1.39125850
O        1.18191079      -1.43565585       1.45816384
H        1.23126511       1.63137254      -0.39632693
H       -0.40744668       1.89431681      -1.00969246
H       -0.04931034       2.17266260       0.69857432
H       -1.26905160      -0.01668067       0.32854433
H        0.06279062      -0.60250479      -0.68474036
H        0.35384841       0.20663370       2.28871052
9
Properties=species:S:1:pos:R:3 energy=-209.16922499543483 pbc="F F F"
C        0.01474916       1.47888256      -0.03509326
N        0.18708077       0.03831317      -0.02906851
C        0.45703661      -0.66858895       1.10069001
O        0.58457996      -0.19876202       2.21119705
H        0.76025289       1.96736104      -0.67198126
H       -0.98462423       1.75984483      -0.38485103
H        0.14269849       1.82387718       0.99149397
H        0.10386349      -0.46937726      -0.89461379
H        0.55047568      -1.75253452       0.88868242
8
Properties=species:S:1:pos:R:3 energy=-229.00173936866847 pbc="F F F"
C        0.10653781       1.43512049       0.03336100
O        0.42686564       0.04716929       0.09309945
C        0.50714862      -0.63652665      -1.06318297
O        0.76927014      -1.79955017      -1.11010475
H        0.92349251       2.00385139       0.48465728
H       -0.03757815       1.76927183      -1.00057425
H       -0.81269569       1.60801916       0.59873287
H        0.30458460      -0.00231902      -1.94965553
8
Properties=species:S:1:pos:R:3 energy=-229.00948778530264 pbc="F F F"
O        0.19375856       1.37170995       0.31398297
C        0.04992637       0.01405481      -0.04526239
C       -1.40888025      -0.39635680      -0.20601574
O       -1.77729462      -1.37233860      -0.80361689
H       -0.01723186       1.91269132      -0.45337758
H        0.60440478      -0.26519766      -0.95205725
H        0.46740406      -0.57521679       0.78176270
H       -2.11835055       0.30075962       0.29870515
14
Properties=species:S:1:pos:R:3 energy=-158.21126506448377 pbc="F F F"
C       -0.03007624       1.55804912       0.02980774
C        0.00707277       0.02834877      -0.00712529
C        0.71320792      -0.52989340      -1.24765581
C        0.75036895      -2.05959366      -1.28458957
H        0.98195330       1.97845113       0.02800797
H       -0.55582433       1.96212343      -0.84270157
H       -0.54083762       1.92692755       0.92493697
H        0.50928672      -0.34909049       0.89361319
H       -1.01733481      -0.36542299       0.03207393
H        0.21098948      -0.15245770      -2.14839302
H        1.73761331      -0.13611625      -1.28685672
H        1.27616854      -2.46366410      -0.41210980
H       -0.26165699      -2.48000447      -1.28273552
H        1.26108491      -2.42846444      -2.17974803
12
Properties=species:S:1:pos:R:3 energy=-194.19841985508427 pbc="F F F"
C       -0.00379012       1.52196790       0.01027996
C       -0.03589372      -0.00778254       0.00225671
C       -1.45219016      -0.56653711       0.01284386
O       -1.36799785      -1.98394604       0.00453606
H        1.02477576       1.89411231       0.00239793
H       -0.51286674       1.93764614      -0.86653888
H       -0.49584080       1.92801344       0.90121721
H        0.48140784      -0.39530552      -0.88316064
H        0.49828589      -0.40486256       0.87330348
H       -1.98734220      -0.20399494       0.90666062
H       -2.00431485      -0.19459473      -0.86666460
H       -2.26171819      -2.33824298       0.01034748
12
Properties=species:S:1:pos:R:3 energy=-194.18760581581495 pbc="F F F"
C       -0.00519551       1.50868224       0.03308760
C        0.01316580      -0.01037819       0.01988643
O        0.69758944      -0.46344140       1.16868979
C        0.76688491      -1.86508183       1.24602669
H        1.01445476       1.90423799       0.02996018
H       -0.52990866       1.89184059      -0.84726911
H       -0.51263765       1.87805843       0.92875424
H       -1.01599507      -0.40998729       0.00714282
H        0.51093143      -0.38369435      -0.89219395
H       -0.23415841      -2.32451489       1.28977780
H        1.30129276      -2.29853663       0.38486095
H        1.30990287      -2.11811998       2.16013206
10
Properties=species:S:1:pos:R:3 energy=-230.18526304281096 pbc="F F F"
O       -0.01418735       1.42642242      -0.05423651
C       -0.00391839       0.00717714       0.03496062
C       -1.42317019      -0.55560600      -0.01256639
O       -2.11229413      -0.10563875      -1.17228313
H       -0.18987882       1.64154705      -0.97555148
H        0.59659504      -0.43315430      -0.77409095
H        0.47311116      -0.24903733       0.98747216
H       -1.39494859      -1.64975279      -0.06283188
H       -1.96497417      -0.27216915       0.90131972
H       -2.35925991       0.80944396      -1.00614597
12
Properties=species:S:1:pos:R:3 energy=-157.0385698613141 pbc="F F F"
C       -0.03602245       1.52092949       0.01569161
C        0.01938487       0.01004403       0.04814953
C        1.30891671      -0.71251995      -0.24920416
C        0.75347423      -0.70267714       1.15564676
H        0.90105691       1.95389291       0.38283338
H       -0.19640365       1.89437369      -1.00208569
H       -0.84685273       1.90588930       0.64451322
H       -0.88416809      -0.48001889      -0.30566335
H        1.26900901      -1.63903068      -0.81150371
H        2.19010738      -0.11131209      -0.44927513
H        1.26248862      -0.09487455       1.89690028
H        0.33540836      -1.62248918       1.54980695
10
Properties=species:S:1:pos:R:3 energy=-193.01830935317872 pbc="F F F"
C       -0.01646343       1.51830705       0.00771445
C       -0.02743227       0.01657694      -0.10889741
C        0.77296553      -0.70131886      -1.10863115
O        1.17212293      -0.66702969       0.26278829
H        0.91865980       1.92914217      -0.38285880
H       -0.85158014       1.95456506      -0.55109460
H       -0.11487702       1.82596470       1.05397777
H       -0.93582598      -0.47350600       0.24682793
H        0.44443922      -1.67201495      -1.47810622
H        1.40538284      -0.13600339      -1.79271491
11
Properties=species:S:1:pos:R:3 energy=-173.17966747290075 pbc="F F F"
C       -0.05275541       1.47419574       0.00999108
N        0.01940516       0.02189947       0.06334866
C        1.32511048      -0.56446850      -0.21420725
C        0.78051759      -0.54057993       1.17242760
H        0.86784202       1.97176076       0.36297285
H       -0.23845155       1.79095005      -1.02142866
H       -0.88683448       1.81938959       0.62950398
H        1.31992909      -1.48186782      -0.79602038
H        2.15202820       0.11020204      -0.43285248
H        1.24563570       0.14996098       1.87499245
H        0.37013358      -1.44020447       1.62233365
10
Properties=species:S:1:pos:R:3 energy=-193.02615692959702 pbc="F F F"
O        0.21577583       1.35386859      -0.10695107
C        0.01628099      -0.02832718      -0.02915694
C       -0.39081465      -0.71497009       1.24315669
C       -1.35118138      -0.64280380       0.06273589
H       -0.43642338       1.79062849       0.45006761
H        0.74981167      -0.52404050      -0.65624767
H        0.05959375      -1.66840483       1.49729237
H       -0.61369353      -0.08848006       2.10170640
H       -2.19821932       0.03058430       0.15411451
H       -1.56395912      -1.54640426      -0.49826515
12
Properties=species:S:1:pos:R:3 energy=-157.0405081304258 pbc="F F F"
C       -0.02542957       1.54032578      -0.04215944
C        1.52564399       1.50419989       0.04121276
C        1.42146727       0.06146790       0.60844885
C       -0.02638833      -0.01070956       0.04935088
H       -0.46591372       1.99639894       0.84962894
H       -0.47900239       2.00028207      -0.92365389
H        1.98248278       1.51375334      -0.95303183
H        2.02191365       2.25986579       0.65522129
H        2.14291679      -0.67956358       0.25531480
H        1.43105853       0.05751479       1.70261879
H       -0.79053440      -0.48530296       0.66996573
H       -0.05233245      -0.47238446      -0.94236394
10
Properties=species:S:1:pos:R:3 energy=-193.0195691628832 pbc="F F F"
C       -0.03489789       1.55259455      -0.08507691
C        1.49349183       1.45459700       0.10114677
O        1.42725884       0.02348990       0.27254886
C       -0.00634758       0.02236494       0.10944630
H       -0.56579210       2.11301721       0.68591527
H       -0.36628352       1.89393380      -1.06692327
H        2.10031724       1.73525720      -0.76898349
H        1.90023090       1.95506611       0.98896748
H       -0.51987849      -0.35595179       1.00235948
H       -0.31970062      -0.57567421      -0.75559275
12
Properties=species:S:1:pos:R:3 energy=-248.43592866438485 pbc="F F F"
C       -0.10255370       1.49907127      -0.00133642
C       -0.00519774      -0.00343114      -0.02723470
C       -0.00688536      -0.76890740       1.26434744
N        0.08186799      -0.69202791      -1.10087306
O        0.07439067       0.13215394      -2.24195258
H        0.78342093       1.94690862      -0.46354050
H       -0.96150430       1.83614082      -0.59021965
H       -0.19854173       1.87462989       1.01931607
H       -0.92620012      -0.57297946       1.82982479
H        0.07256154      -1.84064782       1.07516863
H        0.82937178      -0.45553340       1.90133089
H        0.13975924      -0.51254299      -2.95389260
10
Properties=species:S:1:pos:R:3 energy=-210.09921285290702 pbc="F F F"
N       -0.00829694       1.35362838       0.00995971
C        1.28033254       1.82457421      -0.00022459
C        2.12216639       0.73698898      -0.01445600
C        1.30849904      -0.43109580      -0.01284154
C       -0.00342782      -0.01836884       0.00235736
H       -0.83243234       1.92772668       0.02122995
H        1.48471820       2.88312630       0.00354313
H        3.20066918       0.77343077      -0.02488416
H        1.64810599      -1.45539683      -0.02180394
H       -0.92551647      -0.57697054       0.00839402
9
Properties=species:S:1:pos:R:3 energy=-226.24869739686426 pbc="F F F"
N       -0.00996090       1.35636172       0.01000855
C        1.29535422       1.79575578      -0.00047017
C        2.05550519       0.65637438      -0.01422927
N        1.25385745      -0.46275132      -0.01260894
C        0.02301170      -0.00706382       0.00200146
H       -0.83195718       1.93618436       0.02132575
H        1.54553961       2.84344998       0.00289054
H        3.13177434       0.57569766      -0.02524155
H       -0.87667864      -0.60414531       0.00750794
9
Properties=species:S:1:pos:R:3 energy=-229.9291879872837 pbc="F F F"
O       -0.03255819       1.35065130       0.00967376
C        1.25319237       1.79167710      -0.00030351
C        2.11664681       0.74375623      -0.01441494
C        1.30397796      -0.43852387      -0.01283316
C        0.01629568      -0.00777185       0.00191294
H        1.37951089       2.86161135       0.00427433
H        3.19376406       0.79865501      -0.02458604
H        1.63858893      -1.46383271      -0.02156949
H       -0.93736295      -0.50899925       0.00843891
8
Properties=species:S:1:pos:R:3 energy=-246.0780478767452 pbc="F F F"
O       -0.03808298       1.35643965       0.00975193
C        1.26496982       1.76855319      -0.00061744
C        2.04955750       0.66630033      -0.01406047
N        1.24227075      -0.46732066      -0.01237541
C        0.04019820       0.00561577       0.00183569
H        1.43513907       2.83095265       0.00340823
H        3.12532898       0.59783015      -0.02480757
H       -0.89387707      -0.53342154       0.00796935
17
Properties=species:S:1:pos:R:3 energy=-197.46274800748583 pbc="F F F"
C       -0.01859029       1.53486266       0.01039904
C        0.00210320      -0.00413672       0.00196980
C        0.74643954      -0.51390760       1.24887638
C       -1.44190166      -0.53673615       0.01311457
C        0.72234971      -0.50049606      -1.26445632
H        0.99776928       1.94420529       0.00435474
H       -0.54181883       1.92841415      -0.86819911
H       -0.52758402       1.91888376       0.90148530
H        0.25549576      -0.17602728       2.16833067
H        0.77815389      -1.60892372       1.27088904
H        1.77964786      -0.14975834       1.26944035
H       -1.99871895      -0.18888794      -0.86408066
H       -1.45956909      -1.63227235       0.00649916
H       -1.98088827      -0.19979639       0.90561580
H        1.75482473      -0.13554018      -1.30118083
H        0.75396989      -1.59524036      -1.29822280
H        0.21358221      -0.15343900      -2.17067181
15
Properties=species:S:1:pos:R:3 energy=-233.45029884694642 pbc="F F F"
C       -0.00855999       1.54270147       0.00152717
C        0.00506780       0.00702635       0.01856160
C        0.76137731      -0.51839196       1.24766443
C       -1.42012774      -0.54933183      -0.02116008
O        0.62590477      -0.48363745      -1.17657057
H        1.01361406       1.94020776       0.00281128
H       -0.51459669       1.90702466      -0.89705781
H       -0.52214815       1.94882514       0.87918344
H        0.28130613      -0.20165548       2.17943598
H        0.79965506      -1.61131746       1.23022549
H        1.79096916      -0.14072935       1.26083003
H       -1.93854829      -0.19910724      -0.91828281
H       -1.39937632      -1.64259062      -0.04563833
H       -1.98850725      -0.23059656       0.85726520
H        1.53111188      -0.15488046      -1.19210222
9
Properties=species:S:1:pos:R:3 energy=-229.92918286474116 pbc="F F F"
C       -0.00693851       1.49559567      -0.01063358
C       -0.02986170      -0.01594623       0.06248673
O       -0.08815239      -0.63215062       1.10334812
C        0.02336981      -0.70256747      -1.22062379
C        0.06738132      -1.26058341      -2.28623129
H        0.90429806       1.83281887      -0.51655384
H       -0.85338524       1.85556926      -0.60552819