48
Lattice="6.708611936 0.0 0.0 0.0 6.708611936 0.0 0.0 0.0 10.062917903" Properties=species:S:1:pos:R:3:forces:R:3 class=2 scale=0.9139659136411754 fps_idx=-1 name=1676 energy=-341.93578742 stress="-0.8773496016301375 0.00524741148438558 -0.003946175420312312 0.00524741148438558 -0.8679864266809805 0.006304467228436044 -0.003946175420312312 0.006304467228436044 -0.8779333762201904" free_energy=-341.93892408 pbc="T T T"
Co       3.35431000       3.35431000       6.70861000      -0.21535500       0.85306000       0.60495400
Co       1.67715000       3.35431000       8.38576000       0.14710000       2.10193400      -0.72814700
Co       5.03146000       3.35431000       5.03146000       0.54937100      -0.42989300       0.30384700
Co       3.35431000       5.03146000       1.67715000       0.89855200      -1.60587300       0.64740800
Co       5.03146000       3.35431000       1.67715000       0.48340600       0.64682400      -0.40485500
Co       5.03146000       0.00000000       8.38576000       0.14409900      -1.26151900      -1.00022000
Co       0.00000000       0.00000000       3.35431000      -0.09320900       0.47494700      -0.29322400
Co       0.00000000       0.00000000       6.70861000      -0.72180400      -0.46684000       0.10487900
Co       0.00000000       1.67715000       1.67715000      -0.70967100       0.90235200       1.42604300
Co       0.00000000       3.35431000       6.70861000       0.12848900       0.57411100       1.17419900
Ni       1.67715000       5.03146000       3.35431000      -0.77387200      -0.72375500      -1.71104900
Ni       1.67715000       1.67715000       3.35431000      -2.20220500       0.78360700      -0.01512100
Ni       5.03146000       3.35431000       8.38576000      -0.18497200       1.42397200      -0.39249300
Ni       3.35431000       5.03146000       8.38576000       0.01626300      -1.97193300      -0.97342500
Ni       0.00000000       5.03146000       8.38576000      -0.10612500      -1.13284800      -1.29097800
Ni       0.00000000       1.67715000       5.03146000      -0.70060000      -0.08933200      -0.14182700
Ni       5.03146000       0.00000000       1.67715000       1.06427900      -0.68727700       1.42062200
Ni       1.67715000       5.03146000       6.70861000      -0.89940900      -1.92998600       2.29005000
Ni       5.03146000       5.03146000       3.35431000       0.90418000       0.36039300      -0.84470100
Ni       3.35431000       3.35431000       0.00000000       0.12295400       1.21734700       0.18849100
Cu       3.35431000       1.67715000       5.03146000       0.97712600       0.81616800       0.06274300
Cu       0.00000000       3.35431000       3.35431000      -0.11813200      -1.38329600      -0.77945300
Cu       0.00000000       3.35431000       0.00000000       0.01970100      -0.27480300      -0.41402700
Cu       5.03146000       0.00000000       5.03146000       1.85676200       1.46131700      -0.82020000
Cu       1.67715000       3.35431000       1.67715000      -1.11165300      -0.24139300       0.53879700
Mo       3.35431000       1.67715000       1.67715000       0.52244100       2.21640800       0.15553300
Mo       1.67715000       0.00000000       1.67715000      -2.16951500       0.39321000       5.09275000
Mo       3.35431000       0.00000000       6.70861000       2.11200100      -0.70893300       3.32200900
Mo       3.35431000       0.00000000       0.00000000       3.03937700      -2.85330700      -1.50303500
Mo       0.00000000       5.03146000       1.67715000      -2.08926800      -1.37631000       3.10161000
Mo       5.03146000       1.67715000       0.00000000       1.55297300       2.44694100       1.34700600
Mo       1.67715000       5.03146000       0.00000000       1.61453200      -4.68685000      -2.41956300
Rh       5.03146000       1.67715000       3.35431000       3.91338600      -0.13812200       0.62922900
Rh       0.00000000       0.00000000       0.00000000      -2.26412000       0.03322900      -0.30354300
Rh       5.03146000       1.67715000       6.70861000       1.52205500       1.53545100      -1.82658500
Rh       0.00000000       1.67715000       8.38576000      -1.78529900       2.38860900      -1.93882400
Rh       1.67715000       1.67715000       0.00000000      -1.20257500       4.10300200       0.69808300
Rh       1.67715000       0.00000000       8.38576000      -1.27784000      -2.98182900      -1.88844800
Rh       1.67715000       1.67715000       6.70861000      -1.54862600       2.66743100      -1.55341900
Rh       1.67715000       3.35431000       5.03146000      -1.45655800      -1.07811700       1.00741000
Rh       3.35431000       1.67715000       8.38576000       1.23198000       3.46554300      -0.38435500
Rh       5.03146000       5.03146000       6.70861000       1.41391700      -1.21385900       2.06511400
Rh       5.03146000       5.03146000       0.00000000      -0.91045700      -2.18496000      -0.75288800
Rh       3.35431000       0.00000000       3.35431000       1.67717100      -1.28185700      -0.40526200
W        3.35431000       3.35431000       3.35431000       0.92289500       1.35950000      -1.97413600
W        3.35431000       5.03146000       5.03146000       2.31304600      -3.80488200       0.99044700
W        0.00000000       5.03146000       5.03146000      -2.28206300      -1.74395900      -0.36706800
W        1.67715000       0.00000000       5.03146000      -4.32472900       4.02637300      -2.04437800
36
Lattice="7.455185391 0.0 0.0 0.0 7.455185391 0.0 0.0 0.0 4.970123594" Properties=species:S:1:pos:R:3:forces:R:3 name=0 energy=-301.19153736 stress="-1.1433988963621757 0.0007244644472595216 -0.0004011043424657617 0.0007244644472595216 -1.1449349754486193 0.0008684810288301517 -0.0004011043424657617 0.0008684810288301517 -1.1440055585661932" free_energy=-301.19659327 class=2 pbc="T T T"
Cr       2.48506000       4.97012000       2.48506000      -0.03877100      -0.00465300      -0.03055900
Cr       1.24253000       6.21265000       1.24253000       0.08831700       0.01715800       0.07784000
Mn       2.48506000       4.97012000       0.00000000      -0.10599200       0.07378700       0.11257700
Mn       1.24253000       1.24253000       1.24253000      -0.02621700       0.46530500      -0.02021600
Mn       6.21265000       6.21265000       3.72759000      -0.00071600      -0.54203000       0.03646900
Mn       0.00000000       4.97012000       0.00000000       0.24030300       0.26579300       0.32756900
Mn       2.48506000       2.48506000       0.00000000       0.01759100       0.01893700      -0.11913700
Mn       3.72759000       1.24253000       1.24253000       0.04239500       0.01621000      -0.01999900
Mn       1.24253000       3.72759000       1.24253000       0.19947600      -0.36745900       0.16647600
Mn       6.21265000       6.21265000       1.24253000      -0.48036200       0.09928200      -0.02021000
Mn       4.97012000       2.48506000       0.00000000      -0.21554100      -0.07676000       0.10821800
Mn       0.00000000       0.00000000       2.48506000       0.06577200      -0.10398500      -0.07222800
Mn       6.21265000       1.24253000       1.24253000       0.00511100      -0.07777800      -0.08492800
Mn       3.72759000       3.72759000       1.24253000      -0.18636700       0.10079300       0.15617900
Mn       4.97012000       0.00000000       0.00000000      -0.06342900      -0.06151700      -0.11863000
Mn       3.72759000       1.24253000       3.72759000      -0.08934900      -0.09797900       0.02927900
Mn       2.48506000       0.00000000       2.48506000      -0.13099100       0.30083700       0.03584800
Mn       6.21265000       3.72759000       1.24253000      -0.02684000      -0.06762600      -0.02410400
Mn       6.21265000       1.24253000       3.72759000       0.08017100       0.49727600       0.07603200
Mn       4.97012000       2.48506000       2.48506000      -0.12558300      -0.13774200      -0.10021200
Mn       2.48506000       2.48506000       2.48506000       0.01596300      -0.43407200       0.10783200
Mn       0.00000000       2.48506000       2.48506000       0.13583400      -0.14405100      -0.17109000
Mn       1.24253000       3.72759000       3.72759000      -0.46501800       0.13097500      -0.17907900
Mn       0.00000000       0.00000000       0.00000000       0.17270900      -0.21494600       0.09627300
Mn       3.72759000       6.21265000       1.24253000       0.33353400      -0.11933300       0.16333000
Mn       4.97012000       4.97012000       0.00000000      -0.15033200       0.17577300       0.14502800
Mn       1.24253000       1.24253000       3.72759000      -0.00330900      -0.01454500       0.03512400
Mn       0.00000000       4.97012000       2.48506000      -0.16638700       0.24056200      -0.33080200
Mn       3.72759000       6.21265000       3.72759000      -0.12038700      -0.10467300      -0.14821800
Mn       0.00000000       2.48506000       0.00000000       0.23178200      -0.08352900       0.15936200
Mn       4.97012000       0.00000000       2.48506000       0.02533700       0.02936800       0.10884700
Mn       4.97012000       4.97012000       2.48506000       0.28711200       0.14111100      -0.13942900
Mn       3.72759000       3.72759000       3.72759000       0.37637500       0.24635000      -0.20875000
Mn       1.24253000       6.21265000       3.72759000       0.14669300      -0.08661500      -0.18170100
Mn       2.48506000       0.00000000       0.00000000      -0.11533400      -0.11736100      -0.05006600
Co       6.21265000       3.72759000       3.72759000       0.04644900       0.03713800       0.07707300
36
Lattice="7.747886107 0.0 0.0 0.0 7.747886107 0.0 0.0 0.0 5.165257405" Properties=species:S:1:pos:R:3:forces:R:3 name=3 energy=-325.11459871 stress="-0.756287361998186 0.007544037182345585 0.00605793385947278 0.007544037182345585 -0.7559998219142657 0.005688729870149407 0.00605793385947278 0.005688729870149407 -0.7565806130629565" free_energy=-325.11323065 class=2 pbc="T T T"
Cr       1.29131000       1.29131000       3.87394000      -0.38770500      -0.44881900       0.64376900
Cr       0.00000000       2.58263000       0.00000000       0.13509100       0.21679500       0.04730700
Cr       2.58263000       0.00000000       2.58263000       0.47039400       0.69394600      -0.07671400
Cr       6.45657000       6.45657000       1.29131000       0.23276800       0.02272400      -0.23325800
Cr       2.58263000       0.00000000       0.00000000       0.25822400       0.08467300       0.06206900
Cr       0.00000000       0.00000000       0.00000000      -0.33524300      -0.11934900       0.05882000
Cr       1.29131000       1.29131000       1.29131000      -0.56699100      -0.64153600      -0.61648500
Cr       2.58263000       5.16526000       0.00000000      -0.66268100       0.35740400       0.39596000
Cr       0.00000000       5.16526000       2.58263000      -0.09271100       0.05599300       0.01226900
Cr       6.45657000       1.29131000       1.29131000       0.10667400       0.02297100      -0.19490900
Cr       3.87394000       3.87394000       1.29131000       0.76568900       0.73205500      -0.61147400
Cr       1.29131000       6.45657000       3.87394000       0.06857400      -0.00721400       0.00446400
Cr       1.29131000       3.87394000       3.87394000       0.02100300       0.60337500       0.57978600
Cr       2.58263000       5.16526000       2.58263000      -0.49937000       0.06540000      -0.46828100
Cr       0.00000000       2.58263000       2.58263000       0.61018400      -0.05724900      -0.08315900
Cr       2.58263000       2.58263000       0.00000000      -0.77476000      -0.63744100       0.54857600
Cr       5.16526000       5.16526000       0.00000000       0.58371100       0.74475300       0.61020100
Cr       5.16526000       2.58263000       0.00000000       0.43952700      -0.82566200       0.44566900
Cr       0.00000000       5.16526000       0.00000000       0.01374200       0.00057000       0.02436400
Cr       5.16526000       0.00000000       0.00000000       0.09513600      -0.06665600       0.04697300
Cr       3.87394000       1.29131000       1.29131000       0.51315300      -0.29937100      -0.66950100
Cr       1.29131000       3.87394000       1.29131000      -0.40131100       0.62856400      -0.53263300
Cr       6.45657000       6.45657000       3.87394000       0.18781300      -0.14723700       0.17594200
Cr       6.45657000       3.87394000       1.29131000      -0.03127200      -0.09771900      -0.10079700
Cr       0.00000000       0.00000000       2.58263000      -0.44382800       0.00676800       0.06405200
Cr       1.29131000       6.45657000       1.29131000      -0.11277300       0.08685400      -0.04612200
Cr       5.16526000       5.16526000       2.58263000       0.50765300       0.92322200      -0.70639200
Cr       6.45657000       1.29131000       3.87394000       0.11812600       0.18092800       0.19576100
Cr       3.87394000       1.29131000       3.87394000       0.36897500       0.14553300       0.75248200
Cr       5.16526000       2.58263000       2.58263000       0.03491300      -1.03919400      -0.54220900
Cr       3.87394000       6.45657000       3.87394000      -0.29763500      -0.84348500       0.38295900
Cr       6.45657000       3.87394000       3.87394000      -0.67587000      -0.05110000       0.07065100
Cr       3.87394000       6.45657000       1.29131000      -0.26426800      -0.19677600      -0.28800200
Fe       5.16526000       0.00000000       2.58263000       0.10051700      -0.15662700       0.03488200
Cu       2.58263000       2.58263000       2.58263000       0.20331600       0.37461600       0.38107100
Cu       3.87394000       3.87394000       3.87394000      -0.28876300      -0.31170900      -0.36809100
36
Lattice="8.400872562 0.0 0.0 0.0 8.400872562 0.0 0.0 0.0 5.600581708" Properties=species:S:1:pos:R:3:forces:R:3 name=6 energy=-180.70746315 stress="-0.8026929698661098 -6.241509125883259e-09 -6.241509125883259e-09 -6.241509125883259e-09 -0.8026931945604383 0.0 -6.241509125883259e-09 0.0 -0.8033618848821489" free_energy=-180.70941383 class=2 pbc="T T T"
Nb       7.00073000       7.00073000       4.20044000       0.00000200      -0.00000600       0.00000000
Pd       4.20044000       7.00073000       1.40015000      -0.32966400      -0.00001100      -0.00000000
Pd       1.40015000       1.40015000       4.20044000       0.07659400       0.07660100       0.00000000
Pd       5.60058000       5.60058000       2.80029000      -0.36971600      -0.36971900       0.16365700
Pd       7.00073000       4.20044000       4.20044000       0.00000200      -0.11573600       0.00000100
Pd       2.80029000       2.80029000       2.80029000       0.00000200       0.00000900       0.13236700
Pd       4.20044000       4.20044000       4.20044000      -0.07659900      -0.07658700      -0.00000000
Pd       0.00000000       5.60058000       2.80029000       0.36971600      -0.36972100       0.16365700
Pd       2.80029000       0.00000000       2.80029000       0.00000500       0.05654800       0.04011800
Pd       5.60058000       5.60058000       0.00000000      -0.36971700      -0.36971800      -0.16365700
Pd       2.80029000       5.60058000       2.80029000       0.00000200      -0.05657200       0.04011600
Pd       4.20044000       4.20044000       1.40015000      -0.25695300      -0.25693900       0.00000000
Pd       4.20044000       7.00073000       4.20044000      -0.11574800      -0.00001000       0.00000100
Pd       1.40015000       7.00073000       1.40015000       0.32966500      -0.00001400      -0.00000100
Pd       0.00000000       2.80029000       0.00000000       0.05656600       0.00002200      -0.04011400
Pd       4.20044000       1.40015000       4.20044000      -0.07659400       0.07659900       0.00000000
Pd       0.00000000       0.00000000       0.00000000       0.36973000       0.36972000      -0.16365200
Pd       5.60058000       0.00000000       0.00000000      -0.36973300       0.36971900      -0.16365300
Pd       0.00000000       5.60058000       0.00000000       0.36971500      -0.36972100      -0.16365600
Pd       5.60058000       2.80029000       2.80029000      -0.05656900       0.00001900       0.04011400
Pd       1.40015000       4.20044000       4.20044000       0.07659700      -0.07658600       0.00000000
Pd       0.00000000       2.80029000       2.80029000       0.05656600       0.00002100       0.04011400
Pd       1.40015000       7.00073000       4.20044000       0.11575000      -0.00001300      -0.00000100
Pd       1.40015000       1.40015000       1.40015000       0.25693700       0.25694000      -0.00000000
Pd       7.00073000       1.40015000       1.40015000      -0.00000100       0.32966100      -0.00000100
Pd       2.80029000       0.00000000       0.00000000       0.00000500       0.05654800      -0.04011800
Pd       7.00073000       4.20044000       1.40015000       0.00000200      -0.32965500       0.00000000
Pd       5.60058000       0.00000000       2.80029000      -0.36973300       0.36971900       0.16365200
Pd       1.40015000       4.20044000       1.40015000       0.25695000      -0.25693700      -0.00000000
Pd       0.00000000       0.00000000       2.80029000       0.36973100       0.36972000       0.16365200
Pd       5.60058000       2.80029000       0.00000000      -0.05656900       0.00001900      -0.04011400
Pd       4.20044000       1.40015000       1.40015000      -0.25693700       0.25693800      -0.00000000
Pd       2.80029000       2.80029000       0.00000000       0.00000100       0.00000900      -0.13236700
Pd       2.80029000       5.60058000       0.00000000       0.00000200      -0.05657200      -0.04011700
Pd       7.00073000       1.40015000       4.20044000      -0.00000100       0.11574800      -0.00000100
Pt       7.00073000       7.00073000       1.40015000      -0.00000500      -0.00004100       0.00000000
36
Lattice="7.448878466 0.0 0.0 0.0 7.448878466 0.0 0.0 0.0 4.965918978" Properties=species:S:1:pos:R:3:forces:R:3 name=1 energy=-271.32267292 stress="-0.9678816179615046 -6.31578308448127e-05 -0.0005694940171729661 -6.31578308448127e-05 -0.966339890309302 -0.0011419652341989786 -0.0005694940171729661 -0.0011419652341989786 -0.964662540905303" free_energy=-271.3158183 class=2 pbc="T T T"
Mn       3.72444000       3.72444000       1.24148000      -0.05374600      -0.05068300      -0.01639400
Mn       0.00000000       0.00000000       0.00000000       0.00313000       0.00341800      -0.09758000
Fe       1.24148000       3.72444000       3.72444000      -0.19761900       0.01612000       0.23876900
Fe       6.20740000       3.72444000       1.24148000       0.28196400       0.10516400      -0.14846400
Fe       2.48296000       4.96592000       2.48296000       0.17341500      -0.18696000       0.19313100
Fe       1.24148000       6.20740000       3.72444000      -0.19981500       0.01881100       0.05592900
Fe       2.48296000       4.96592000       0.00000000       0.32769600       0.27840000      -0.18674100
Fe       3.72444000       6.20740000       3.72444000       0.10759800       0.28362900      -0.23061300
Fe       2.48296000       0.00000000       2.48296000      -0.36564700      -0.15471000      -0.03163300
Fe       6.20740000       6.20740000       3.72444000       0.09929900       0.13876800      -0.05394000
Fe       1.24148000       6.20740000       1.24148000       0.10625400      -0.29280400      -0.04950700
Fe       2.48296000       0.00000000       0.00000000       0.16660400      -0.18126100       0.04237700
Fe       4.96592000       2.48296000       2.48296000      -0.04456900       0.48715700       0.21093700
Fe       3.72444000       6.20740000       1.24148000       0.09175600       0.27153700       0.20889700
Fe       6.20740000       3.72444000       3.72444000       0.29345900       0.11880400       0.14420300
Fe       0.00000000       2.48296000       0.00000000      -0.31802300      -0.15177800       0.03517400
Fe       1.24148000       3.72444000       1.24148000      -0.19259600       0.02917900      -0.23822900
Fe       3.72444000       1.24148000       3.72444000       0.01470500      -0.18715500      -0.01896300
Fe       1.24148000       1.24148000       3.72444000      -0.03488000      -0.02549400       0.07983300
Fe       6.20740000       1.24148000       3.72444000       0.03587400      -0.24347500      -0.25890900
Fe       6.20740000       1.24148000       1.24148000      -0.28334600       0.06047700       0.25555200
Fe       0.00000000       4.96592000       2.48296000       0.13625100      -0.12552100      -0.02851100
Fe       4.96592000       4.96592000       2.48296000      -0.32107500      -0.46117100       0.22175800
Fe       0.00000000       2.48296000       2.48296000       0.00456300      -0.01825400      -0.03843000
Fe       3.72444000       1.24148000       1.24148000       0.01703100      -0.18738800       0.00151200
Fe       4.96592000       0.00000000       0.00000000      -0.18482200      -0.01317500       0.02257900
Fe       4.96592000       2.48296000       0.00000000       0.16998000       0.02682400      -0.17722900
Fe       0.00000000       0.00000000       2.48296000       0.33557100       0.13123100       0.02971900
Fe       1.24148000       1.24148000       1.24148000       0.28082600       0.28546300      -0.10261400
Fe       2.48296000       2.48296000       2.48296000       0.03383700       0.33950100       0.13126400
Fe       4.96592000       4.96592000       0.00000000      -0.20375400      -0.03931400      -0.18584500
Fe       6.20740000       6.20740000       1.24148000      -0.21264400      -0.16500100       0.07795300
Co       2.48296000       2.48296000       0.00000000       0.17555700      -0.02254000      -0.23024700
Co       0.00000000       4.96592000       0.00000000      -0.10781500       0.09935700       0.05299200
Co       4.96592000       0.00000000       2.48296000       0.02176000      -0.02258000      -0.05283000
Co       3.72444000       3.72444000       3.72444000      -0.15677900      -0.16457400       0.14410000
36
Lattice="8.120932962 0.0 0.0 0.0 8.120932962 0.0 0.0 0.0 5.413955308" Properties=species:S:1:pos:R:3:forces:R:3 name=8 energy=-311.34992512 stress="-0.6226472955908458 0.002482547771801814 0.002518205513437985 0.002482547771801814 -0.6184299265990139 -0.00020983329530306928 0.002518205513437985 -0.00020983329530306928 -0.6169036029913338" free_energy=-311.34438963 class=2 pbc="T T T"
V        0.00000000       5.41396000       0.00000000      -1.07464900       0.88499700      -1.01933700
V        0.00000000       0.00000000       0.00000000       0.06918200       0.15960800      -0.06790800
V        2.70698000       0.00000000       2.70698000      -0.01939700      -0.17372300      -0.04412500
V        4.06047000       1.35349000       1.35349000      -0.28798500      -0.29284800       0.58768100
V        1.35349000       6.76744000       4.06047000      -0.19849100      -0.00709800      -0.06974400
V        1.35349000       6.76744000       1.35349000       0.16415500      -0.33547600       0.08488700
V        1.35349000       4.06047000       4.06047000       0.25726700       0.02964400      -0.04062100
V        6.76744000       6.76744000       1.35349000       0.90389500       0.72337500      -1.19902100
V        5.41396000       5.41396000       0.00000000       0.77241500       0.80924700      -0.67555300
V        0.00000000       2.70698000       2.70698000      -1.01991500      -0.81128200       1.03315400
V        4.06047000       6.76744000       4.06047000      -0.92565300       0.89027100       1.10378500
V        2.70698000       5.41396000       0.00000000       0.06948100       1.94095900      -2.11178200
V        6.76744000       6.76744000       4.06047000       0.83560000       1.15007000       0.90123100
V        2.70698000       0.00000000       0.00000000      -0.12972700       0.16287700       0.00990300
V        5.41396000       0.00000000       0.00000000      -0.02418400      -0.37389500      -0.01850300
V        5.41396000       2.70698000       2.70698000       0.70467800      -0.38460200       0.87896300
V        6.76744000       1.35349000       4.06047000       0.53738000      -0.95601400      -0.48522600
V        1.35349000       1.35349000       1.35349000       0.17930400       0.32600000      -0.15122200
V        0.00000000       2.70698000       0.00000000      -0.49639700      -0.95292300      -0.99814500
V        5.41396000       0.00000000       2.70698000      -0.10098900       0.09695100      -0.03137800
V        6.76744000       4.06047000       4.06047000       1.36161400      -0.56131000       0.55505300
V        4.06047000       4.06047000       4.06047000      -1.30689800      -0.48756300       0.35482600
V        1.35349000       1.35349000       4.06047000      -0.18042300      -0.03025100       0.11417400
V        4.06047000       1.35349000       4.06047000      -0.34626600      -0.41531200      -0.58665300
V        2.70698000       5.41396000       2.70698000       0.09906100       1.76322100       1.92267300
V        6.76744000       1.35349000       1.35349000       0.38434900      -0.23260400       0.53469000
V        2.70698000       2.70698000       2.70698000       0.02608800      -1.81071800       2.17024200
V        6.76744000       4.06047000       1.35349000       0.96557700      -0.47110300      -0.53807100
V        0.00000000       0.00000000       2.70698000      -0.08106600      -0.18518900       0.09633400
V        0.00000000       5.41396000       2.70698000      -0.71893600       0.90819400       0.97888400
V        4.06047000       6.76744000       1.35349000      -0.83873400       0.60665000      -1.07693100
V        2.70698000       2.70698000       0.00000000      -0.19246600      -1.66505300      -1.72846000
Ru       5.41396000       2.70698000       0.00000000       1.69541300      -1.44499800      -1.61821100
Pd       5.41396000       5.41396000       2.70698000       1.39322800       1.24537300       1.26173600
Pd       1.35349000       4.06047000       1.35349000      -0.61012800       0.02610100      -0.00214000
Pd       4.06047000       4.06047000       1.35349000      -1.86638600      -0.13157500      -0.12518500
36
Lattice="8.334892629 0.0 0.0 0.0 8.334892629 0.0 0.0 0.0 5.556595086" Properties=species:S:1:pos:R:3:forces:R:3 name=10 energy=-256.95169764 stress="-1.3987422990113325 -0.0013584769442667429 -0.0025199718605206103 -0.0013584769442667429 -1.388747832863147 -0.0022011742988978715 -0.0025199718605206103 -0.0022011742988978715 -1.3790730380878617" free_energy=-256.97161878 class=2 pbc="T T T"
Ni       5.55660000       5.55660000       2.77830000       0.29028900       0.17614900       0.31839600
Zr       4.16745000       4.16745000       1.38915000       3.23975300       1.66940600       1.76319500
Zr       1.38915000       4.16745000       1.38915000      -1.54582600       0.03714800       0.05908200
Ir       4.16745000       6.94574000       1.38915000       1.70350200      -1.36354500       1.77884600
Ir       5.55660000       0.00000000       2.77830000      -0.13270200      -0.33100600       0.32378600
Ir       6.94574000       6.94574000       1.38915000      -1.62713900      -1.76497200       1.79792800
Ir       4.16745000       1.38915000       1.38915000       0.04836300      -0.21430000       0.00144200
Ir       4.16745000       1.38915000       4.16745000       0.57597200      -0.33006900       0.00486900
Ir       1.38915000       1.38915000       4.16745000      -0.65755300      -0.39681900       0.07976800
Ir       0.00000000       5.55660000       0.00000000      -0.72701900       0.34805900      -0.49520100
Ir       6.94574000       4.16745000       4.16745000      -1.66080100       1.74274600      -1.68801500
Ir       0.00000000       0.00000000       2.77830000      -0.04930600      -0.18344000       0.45025500
Ir       2.77830000       2.77830000       2.77830000       0.21533700      -0.04518100       0.39863700
Ir       2.77830000       5.55660000       0.00000000       0.29406300       0.30220200      -0.46095200
Ir       4.16745000       6.94574000       4.16745000       2.43556500      -1.33277800      -1.68976000
Ir       6.94574000       4.16745000       1.38915000      -1.60643400       1.72996100       1.79969300
Ir       2.77830000       2.77830000       0.00000000       0.09005100      -0.12957500      -0.49712200
Ir       0.00000000       0.00000000       0.00000000       0.06527200      -0.09370900      -0.23311000
Ir       2.77830000       0.00000000       0.00000000       0.13579200      -0.17642500       0.21331300
Ir       1.38915000       4.16745000       4.16745000      -0.01355100      -0.06726400       0.04967000
Ir       6.94574000       1.38915000       4.16745000      -0.00096700      -1.02851300       0.02029600
Ir       1.38915000       6.94574000       4.16745000      -0.55708600       0.36709400       0.03698100
Ir       5.55660000       2.77830000       0.00000000       0.43408400       0.02286000      -0.42678900
Ir       0.00000000       2.77830000       0.00000000      -0.58693500      -0.16492300      -0.49894200
Ir       6.94574000       1.38915000       1.38915000      -0.00843300       0.11035600      -0.01963000
Ir       5.55660000       2.77830000       2.77830000       0.31291700       0.08731800       0.29000800
Ir       6.94574000       6.94574000       4.16745000      -1.88499900      -0.82077500      -1.83221300
Ir       0.00000000       5.55660000       2.77830000      -0.67150300       0.31465000       0.47296300
Ir       5.55660000       5.55660000       0.00000000       0.28328200       0.18856900      -0.29096200
Ir       1.38915000       1.38915000       1.38915000      -0.03597900      -0.19886900      -0.22613400
Ir       0.00000000       2.77830000       2.77830000      -0.65481400      -0.07781700       0.49075700