5
Properties=species:S:1:pos:R:3:forces:R:3:my_tensor:R:9 A=157.7118 B=157.70997 C=157.70699 mu=0 alpha=13.21 epsHOMO=-0.3877 epsLUMO=0.1171 epsgap=0.5048 <R2>=35.3641 zpve=0.044749 U0=-100.0 U=-40.476062 H=-40.475117 G=-40.498597 Cv=6.469 pbc="F F F"
C       -0.01269814       1.08580416       0.00800100       0.00000000       0.00000000       0.00000000       0.00000000       0.00000000       0.00000000       0.00000000       0.00000000       0.00000000       0.00000000       0.00000000       0.00000000
H        0.00215042      -0.00603132       0.00197612       0.00000000       0.00000000       0.00000000       0.00000000       0.00000000       0.00000000       0.00000000       0.00000000       0.00000000       0.00000000       0.00000000       0.00000000
H        1.01173084       1.46375116       0.00027657       0.00000000       0.00000000       0.00000000       0.00000000       0.00000000       0.00000000       0.00000000       0.00000000       0.00000000       0.00000000       0.00000000       0.00000000
H       -0.54081507       1.44752661      -0.87664372       0.00000000       0.00000000       0.00000000       0.00000000       0.00000000       0.00000000       0.00000000       0.00000000       0.00000000       0.00000000       0.00000000       0.00000000
H       -0.52381363       1.43793264       0.90639729       0.00000000       0.00000000       0.00000000       0.00000000       0.00000000       0.00000000       0.00000000       0.00000000       0.00000000       0.00000000       0.00000000       0.00000000
4
Properties=species:S:1:pos:R:3:forces:R:3:my_tensor:R:9 A=293.60975 B=293.54111 C=191.39397 mu=1.6256 alpha=9.46 epsHOMO=-0.257 epsLUMO=0.0829 epsgap=0.3399 <R2>=26.1563 zpve=0.034358 U0=-100.0 U=-56.523026 H=-56.522082 G=-56.544961 Cv=6.316 pbc="F F F"
N       -0.04042605       1.02410775       0.06256380       0.00000000       0.00000000       0.00000000       0.00000000       0.00000000       0.00000000       0.00000000       0.00000000       0.00000000       0.00000000       0.00000000       0.00000000
H        0.01725746       0.01254521      -0.02737716       0.00000000       0.00000000       0.00000000       0.00000000       0.00000000       0.00000000       0.00000000       0.00000000       0.00000000       0.00000000       0.00000000       0.00000000
H        0.91578937       1.35874519      -0.02875776       0.00000000       0.00000000       0.00000000       0.00000000       0.00000000       0.00000000       0.00000000       0.00000000       0.00000000       0.00000000       0.00000000       0.00000000
H       -0.52027774       1.34353213      -0.77554261       0.00000000       0.00000000       0.00000000       0.00000000       0.00000000       0.00000000       0.00000000       0.00000000       0.00000000       0.00000000       0.00000000       0.00000000
3
Properties=species:S:1:pos:R:3:forces:R:3:my_tensor:R:9 A=799.58812 B=437.90386 C=282.94545 mu=1.8511 alpha=6.31 epsHOMO=-0.2928 epsLUMO=0.0687 epsgap=0.3615 <R2>=19.0002 zpve=0.021375 U0=-100.0 U=-76.401867 H=-76.400922 G=-76.422349 Cv=6.002 pbc="F F F"
O       -0.03436050       0.97753957       0.00760159       0.00000000       0.00000000       0.00000000       0.00000000       0.00000000       0.00000000       0.00000000       0.00000000       0.00000000       0.00000000       0.00000000       0.00000000
H        0.06476649       0.02057220       0.00153463       0.00000000       0.00000000       0.00000000       0.00000000       0.00000000       0.00000000       0.00000000       0.00000000       0.00000000       0.00000000       0.00000000       0.00000000
H        0.87179037       1.30079240       0.00069313       0.00000000       0.00000000       0.00000000       0.00000000       0.00000000       0.00000000       0.00000000       0.00000000       0.00000000       0.00000000       0.00000000       0.00000000
4
Properties=species:S:1:pos:R:3:forces:R:3:my_tensor:R:9 A=0 B=35.6100361 C=35.6100361 mu=0 alpha=16.28 epsHOMO=-0.2845 epsLUMO=0.0506 epsgap=0.3351 <R2>=59.5248 zpve=0.026841 U0=-100.0 U=-77.305527 H=-77.304583 G=-77.327429 Cv=8.574 pbc="F F F"
C        0.59953949       0.00000000       1.00000000       0.00000000       0.00000000       0.00000000       0.00000000       0.00000000       0.00000000       0.00000000       0.00000000       0.00000000       0.00000000       0.00000000       0.00000000
C       -0.59953949       0.00000000       1.00000000       0.00000000       0.00000000       0.00000000       0.00000000       0.00000000       0.00000000       0.00000000       0.00000000       0.00000000       0.00000000       0.00000000       0.00000000
H       -1.66163859       0.00000000       1.00000000       0.00000000       0.00000000       0.00000000       0.00000000       0.00000000       0.00000000       0.00000000       0.00000000       0.00000000       0.00000000       0.00000000       0.00000000
H        1.66163859       0.00000000       1.00000000       0.00000000       0.00000000       0.00000000       0.00000000       0.00000000       0.00000000       0.00000000       0.00000000       0.00000000       0.00000000       0.00000000       0.00000000
3
Properties=species:S:1:pos:R:3:forces:R:3:my_tensor:R:9 A=0 B=44.593883 C=44.593883 mu=2.8937 alpha=12.99 epsHOMO=-0.3604 epsLUMO=0.0191 epsgap=0.3796 <R2>=48.7476 zpve=0.016601 U0=-100.0 U=-93.40937 H=-93.408425 G=-93.431246 Cv=6.278 pbc="F F F"
C       -0.01332393       1.13246572       0.00827589       0.00000000       0.00000000       0.00000000       0.00000000       0.00000000       0.00000000       0.00000000       0.00000000       0.00000000       0.00000000       0.00000000       0.00000000
N        0.00231072      -0.01915859       0.00192873       0.00000000       0.00000000       0.00000000       0.00000000       0.00000000       0.00000000       0.00000000       0.00000000       0.00000000       0.00000000       0.00000000       0.00000000
H       -0.02780270       2.19894930       0.01415379       0.00000000       0.00000000       0.00000000       0.00000000       0.00000000       0.00000000       0.00000000       0.00000000       0.00000000       0.00000000       0.00000000       0.00000000
4
Properties=species:S:1:pos:R:3:forces:R:3:my_tensor:R:9 A=285.48839 B=38.9823 C=34.29892 mu=2.1089 alpha=14.18 epsHOMO=-0.267 epsLUMO=-0.0406 epsgap=0.2263 <R2>=59.9891 zpve=0.026603 U0=-100.0 U=-114.480746 H=-114.479802 G=-114.505268 Cv=6.413 pbc="F F F"
C       -0.01397770       1.18021143       0.00775250       0.00000000       0.00000000       0.00000000       0.00000000       0.00000000       0.00000000       0.00000000       0.00000000       0.00000000       0.00000000       0.00000000       0.00000000
O        0.00231399      -0.01966366       0.00216107       0.00000000       0.00000000       0.00000000       0.00000000       0.00000000       0.00000000       0.00000000       0.00000000       0.00000000       0.00000000       0.00000000       0.00000000
H        0.91496029       1.78951117       0.00395656       0.00000000       0.00000000       0.00000000       0.00000000       0.00000000       0.00000000       0.00000000       0.00000000       0.00000000       0.00000000       0.00000000       0.00000000
H       -0.95910972       1.76401798       0.01718284       0.00000000       0.00000000       0.00000000       0.00000000       0.00000000       0.00000000       0.00000000       0.00000000       0.00000000       0.00000000       0.00000000       0.00000000
8
Properties=species:S:1:pos:R:3:forces:R:3:my_tensor:R:9 A=80.46225 B=19.90649 C=19.90633 mu=0 alpha=23.95 epsHOMO=-0.3385 epsLUMO=0.1041 epsgap=0.4426 <R2>=109.5031 zpve=0.074542 U0=-100.0 U=-79.760666 H=-79.759722 G=-79.787269 Cv=10.098 pbc="F F F"
C       -0.01870400       1.52558201       0.01043281       0.00000000       0.00000000       0.00000000       0.00000000       0.00000000       0.00000000       0.00000000       0.00000000       0.00000000       0.00000000       0.00000000       0.00000000
C        0.00210374      -0.00388191       0.00199882       0.00000000       0.00000000       0.00000000       0.00000000       0.00000000       0.00000000       0.00000000       0.00000000       0.00000000       0.00000000       0.00000000       0.00000000
H        0.99487275       1.93974324       0.00294120       0.00000000       0.00000000       0.00000000       0.00000000       0.00000000       0.00000000       0.00000000       0.00000000       0.00000000       0.00000000       0.00000000       0.00000000
H       -0.54207611       1.92361063      -0.86511735       0.00000000       0.00000000       0.00000000       0.00000000       0.00000000       0.00000000       0.00000000       0.00000000       0.00000000       0.00000000       0.00000000       0.00000000
H       -0.52524112       1.91417308       0.90002399       0.00000000       0.00000000       0.00000000       0.00000000       0.00000000       0.00000000       0.00000000       0.00000000       0.00000000       0.00000000       0.00000000       0.00000000
H        0.52548654      -0.40190784       0.87754395       0.00000000       0.00000000       0.00000000       0.00000000       0.00000000       0.00000000       0.00000000       0.00000000       0.00000000       0.00000000       0.00000000       0.00000000
H       -1.01147651      -0.41803380       0.00950849       0.00000000       0.00000000       0.00000000       0.00000000       0.00000000       0.00000000       0.00000000       0.00000000       0.00000000       0.00000000       0.00000000       0.00000000
H        0.50862619      -0.39247040      -0.88760117       0.00000000       0.00000000       0.00000000       0.00000000       0.00000000       0.00000000       0.00000000       0.00000000       0.00000000       0.00000000       0.00000000       0.00000000
6
Properties=species:S:1:pos:R:3:forces:R:3:my_tensor:R:9 A=127.83497 B=24.85872 C=23.97872 mu=1.5258 alpha=16.97 epsHOMO=-0.2653 epsLUMO=0.0784 epsgap=0.3437 <R2>=83.794 zpve=0.051208 U0=-100.0 U=-115.675816 H=-115.674872 G=-115.701876 Cv=8.751 pbc="F F F"
C       -0.00828817       1.39046978      -0.00560069       0.00000000       0.00000000       0.00000000       0.00000000       0.00000000       0.00000000       0.00000000       0.00000000       0.00000000       0.00000000       0.00000000       0.00000000
O       -0.00797038      -0.02504537       0.02030606       0.00000000       0.00000000       0.00000000       0.00000000       0.00000000       0.00000000       0.00000000       0.00000000       0.00000000       0.00000000       0.00000000       0.00000000
H        1.00658338       1.81556366       0.00348335       0.00000000       0.00000000       0.00000000       0.00000000       0.00000000       0.00000000       0.00000000       0.00000000       0.00000000       0.00000000       0.00000000       0.00000000
H       -0.54657475       1.79916975      -0.87390126       0.00000000       0.00000000       0.00000000       0.00000000       0.00000000       0.00000000       0.00000000       0.00000000       0.00000000       0.00000000       0.00000000       0.00000000
H       -0.52288871       1.72555240       0.89907326       0.00000000       0.00000000       0.00000000       0.00000000       0.00000000       0.00000000       0.00000000       0.00000000       0.00000000       0.00000000       0.00000000       0.00000000
H        0.44142019      -0.33354425      -0.77152059       0.00000000       0.00000000       0.00000000       0.00000000       0.00000000       0.00000000       0.00000000       0.00000000       0.00000000       0.00000000       0.00000000       0.00000000
7
Properties=species:S:1:pos:R:3:forces:R:3:my_tensor:R:9 A=160.28041 B=8.59323 C=8.59321 mu=0.7156 alpha=28.78 epsHOMO=-0.2609 epsLUMO=0.0613 epsgap=0.3222 <R2>=177.1963 zpve=0.05541 U0=-100.0 U=-116.60555 H=-116.604606 G=-116.633775 Cv=12.482 pbc="F F F"
C       -0.01782102       1.46435788       0.01009397       0.00000000       0.00000000       0.00000000       0.00000000       0.00000000       0.00000000       0.00000000       0.00000000       0.00000000       0.00000000       0.00000000       0.00000000
C        0.00208816       0.00950777       0.00201200       0.00000000       0.00000000       0.00000000       0.00000000       0.00000000       0.00000000       0.00000000       0.00000000       0.00000000       0.00000000       0.00000000       0.00000000
C        0.01834085      -1.19180518      -0.00450508       0.00000000       0.00000000       0.00000000       0.00000000       0.00000000       0.00000000       0.00000000       0.00000000       0.00000000       0.00000000       0.00000000       0.00000000
H        0.99782210       1.87425349       0.00260606       0.00000000       0.00000000       0.00000000       0.00000000       0.00000000       0.00000000       0.00000000       0.00000000       0.00000000       0.00000000       0.00000000       0.00000000
H       -0.54220434       1.85801178      -0.86721192       0.00000000       0.00000000       0.00000000       0.00000000       0.00000000       0.00000000       0.00000000       0.00000000       0.00000000       0.00000000       0.00000000       0.00000000
H       -0.52533306       1.84834356       0.90148138       0.00000000       0.00000000       0.00000000       0.00000000       0.00000000       0.00000000       0.00000000       0.00000000       0.00000000       0.00000000       0.00000000       0.00000000
H        0.03231658      -2.25314823      -0.01025999       0.00000000       0.00000000       0.00000000       0.00000000       0.00000000       0.00000000       0.00000000       0.00000000       0.00000000       0.00000000       0.00000000       0.00000000
6
Properties=species:S:1:pos:R:3:forces:R:3:my_tensor:R:9 A=159.03567 B=9.22327 C=9.22324 mu=3.8266 alpha=24.45 epsHOMO=-0.3264 epsLUMO=0.0376 epsgap=0.364 <R2>=160.7223 zpve=0.045286 U0=-100.0 U=-132.714563 H=-132.713619 G=-132.742149 Cv=10.287 pbc="F F F"
C       -0.01788629       1.46712787       0.01011311       0.00000000       0.00000000       0.00000000       0.00000000       0.00000000       0.00000000       0.00000000       0.00000000       0.00000000       0.00000000       0.00000000       0.00000000
C        0.00173819       0.01035260       0.00207588       0.00000000       0.00000000       0.00000000       0.00000000       0.00000000       0.00000000       0.00000000       0.00000000       0.00000000       0.00000000       0.00000000       0.00000000
N        0.01765235      -1.14452926      -0.00420445       0.00000000       0.00000000       0.00000000       0.00000000       0.00000000       0.00000000       0.00000000       0.00000000       0.00000000       0.00000000       0.00000000       0.00000000
H        1.00202941       1.86089927       0.00245401       0.00000000       0.00000000       0.00000000       0.00000000       0.00000000       0.00000000       0.00000000       0.00000000       0.00000000       0.00000000       0.00000000       0.00000000
H       -0.54398848       1.84479901      -0.87075460       0.00000000       0.00000000       0.00000000       0.00000000       0.00000000       0.00000000       0.00000000       0.00000000       0.00000000       0.00000000       0.00000000       0.00000000
H       -0.52707783       1.83518166       0.90486329       0.00000000       0.00000000       0.00000000       0.00000000       0.00000000       0.00000000       0.00000000       0.00000000       0.00000000       0.00000000       0.00000000       0.00000000
7
Properties=species:S:1:pos:R:3:forces:R:3:my_tensor:R:9 A=57.22434 B=10.11122 C=9.07368 mu=2.5682 alpha=25.11 epsHOMO=-0.254 epsLUMO=-0.0198 epsgap=0.2342 <R2>=166.9728 zpve=0.055355 U0=-100.0 U=-153.783728 H=-153.782784 G=-153.812518 Cv=11.219 pbc="F F F"
C       -0.00294482       1.50991366       0.00867278       0.00000000       0.00000000       0.00000000       0.00000000       0.00000000       0.00000000       0.00000000       0.00000000       0.00000000       0.00000000       0.00000000       0.00000000
C        0.02608284       0.00327563      -0.03745912       0.00000000       0.00000000       0.00000000       0.00000000       0.00000000       0.00000000       0.00000000       0.00000000       0.00000000       0.00000000       0.00000000       0.00000000
O        0.94228801      -0.65507035      -0.45682576       0.00000000       0.00000000       0.00000000       0.00000000       0.00000000       0.00000000       0.00000000       0.00000000       0.00000000       0.00000000       0.00000000       0.00000000
H        0.92278802       1.92634242      -0.39146557       0.00000000       0.00000000       0.00000000       0.00000000       0.00000000       0.00000000       0.00000000       0.00000000       0.00000000       0.00000000       0.00000000       0.00000000
H       -0.86201540       1.87852481      -0.56479538       0.00000000       0.00000000       0.00000000       0.00000000       0.00000000       0.00000000       0.00000000       0.00000000       0.00000000       0.00000000       0.00000000       0.00000000
H       -0.15050638       1.84393383       1.04289100       0.00000000       0.00000000       0.00000000       0.00000000       0.00000000       0.00000000       0.00000000       0.00000000       0.00000000       0.00000000       0.00000000       0.00000000
H       -0.89443009      -0.48643408       0.35774865       0.00000000       0.00000000       0.00000000       0.00000000       0.00000000       0.00000000       0.00000000       0.00000000       0.00000000       0.00000000       0.00000000       0.00000000
6
Properties=species:S:1:pos:R:3:forces:R:3:my_tensor:R:9 A=73.8472 B=11.34793 C=9.83639 mu=3.7286 alpha=21.57 epsHOMO=-0.2543 epsLUMO=0.0302 epsgap=0.2845 <R2>=145.3078 zpve=0.045279 U0=-100.0 U=-169.856903 H=-169.855958 G=-169.885594 Cv=10.89 pbc="F F F"
N       -0.02589986       1.34614561       0.00889391       0.00000000       0.00000000       0.00000000       0.00000000       0.00000000       0.00000000       0.00000000       0.00000000       0.00000000       0.00000000       0.00000000       0.00000000
C        0.04646728      -0.01174341       0.00120425       0.00000000       0.00000000       0.00000000       0.00000000       0.00000000       0.00000000       0.00000000       0.00000000       0.00000000       0.00000000       0.00000000       0.00000000
O        1.07183520      -0.65258782      -0.01113313       0.00000000       0.00000000       0.00000000       0.00000000       0.00000000       0.00000000       0.00000000       0.00000000       0.00000000       0.00000000       0.00000000       0.00000000
H        0.82535497       1.88504948       0.00373769       0.00000000       0.00000000       0.00000000       0.00000000       0.00000000       0.00000000       0.00000000       0.00000000       0.00000000       0.00000000       0.00000000       0.00000000
H       -0.90837680       1.82679638       0.01891992       0.00000000       0.00000000       0.00000000       0.00000000       0.00000000       0.00000000       0.00000000       0.00000000       0.00000000       0.00000000       0.00000000       0.00000000
H       -0.96144100      -0.47500376       0.00807391       0.00000000       0.00000000       0.00000000       0.00000000       0.00000000       0.00000000       0.00000000       0.00000000       0.00000000       0.00000000       0.00000000       0.00000000
11
Properties=species:S:1:pos:R:3:forces:R:3:my_tensor:R:9 A=29.45018 B=8.37701 C=7.42076 mu=0.0597 alpha=34.75 epsHOMO=-0.323 epsLUMO=0.0949 epsgap=0.4179 <R2>=227.1361 zpve=0.103182 U0=-100.0 U=-119.047927 H=-119.046983 G=-119.078157 Cv=14.84 pbc="F F F"
C       -0.03113825       1.54081582       0.03192126       0.00000000       0.00000000       0.00000000       0.00000000       0.00000000       0.00000000       0.00000000       0.00000000       0.00000000       0.00000000       0.00000000       0.00000000
C        0.01215347       0.01092235      -0.01603259       0.00000000       0.00000000       0.00000000       0.00000000       0.00000000       0.00000000       0.00000000       0.00000000       0.00000000       0.00000000       0.00000000       0.00000000
C        0.72169129      -0.52583353      -1.26230570       0.00000000       0.00000000       0.00000000       0.00000000       0.00000000       0.00000000       0.00000000       0.00000000       0.00000000       0.00000000       0.00000000       0.00000000
H        0.97955987       1.96459116       0.03098367       0.00000000       0.00000000       0.00000000       0.00000000       0.00000000       0.00000000       0.00000000       0.00000000       0.00000000       0.00000000       0.00000000       0.00000000
H       -0.55840223       1.94831192      -0.83816075       0.00000000       0.00000000       0.00000000       0.00000000       0.00000000       0.00000000       0.00000000       0.00000000       0.00000000       0.00000000       0.00000000       0.00000000
H       -0.54252252       1.90153531       0.93005671       0.00000000       0.00000000       0.00000000       0.00000000       0.00000000       0.00000000       0.00000000       0.00000000       0.00000000       0.00000000       0.00000000       0.00000000
H        0.51522791      -0.36840234       0.88231134       0.00000000       0.00000000       0.00000000       0.00000000       0.00000000       0.00000000       0.00000000       0.00000000       0.00000000       0.00000000       0.00000000       0.00000000
H       -1.01070641      -0.38456999       0.02051783       0.00000000       0.00000000       0.00000000       0.00000000       0.00000000       0.00000000       0.00000000       0.00000000       0.00000000       0.00000000       0.00000000       0.00000000
H        1.75851210      -0.17376585      -1.30871516       0.00000000       0.00000000       0.00000000       0.00000000       0.00000000       0.00000000       0.00000000       0.00000000       0.00000000       0.00000000       0.00000000       0.00000000
H        0.74087192      -1.62024959      -1.27516511       0.00000000       0.00000000       0.00000000       0.00000000       0.00000000       0.00000000       0.00000000       0.00000000       0.00000000       0.00000000       0.00000000       0.00000000
H        0.22023351      -0.19051179      -2.17729020       0.00000000       0.00000000       0.00000000       0.00000000       0.00000000       0.00000000       0.00000000       0.00000000       0.00000000       0.00000000       0.00000000       0.00000000
9
Properties=species:S:1:pos:R:3:forces:R:3:my_tensor:R:9 A=35.09545 B=9.3686 C=8.1497 mu=1.4131 alpha=27.87 epsHOMO=-0.2619 epsLUMO=0.0798 epsgap=0.3417 <R2>=193.1659 zpve=0.079754 U0=-100.0 U=-154.968412 H=-154.967467 G=-154.998148 Cv=13.546 pbc="F F F"
C       -0.00860504       1.50203829      -0.00681217       0.00000000       0.00000000       0.00000000       0.00000000       0.00000000       0.00000000       0.00000000       0.00000000       0.00000000       0.00000000       0.00000000       0.00000000
C        0.01099310      -0.01764877      -0.01377035       0.00000000       0.00000000       0.00000000       0.00000000       0.00000000       0.00000000       0.00000000       0.00000000       0.00000000       0.00000000       0.00000000       0.00000000
O        0.68088841      -0.44041803      -1.19313210       0.00000000       0.00000000       0.00000000       0.00000000       0.00000000       0.00000000       0.00000000       0.00000000       0.00000000       0.00000000       0.00000000       0.00000000
H        1.01153334       1.89662030      -0.01920155       0.00000000       0.00000000       0.00000000       0.00000000       0.00000000       0.00000000       0.00000000       0.00000000       0.00000000       0.00000000       0.00000000       0.00000000
H       -0.53159862       1.88076109      -0.88974659       0.00000000       0.00000000       0.00000000       0.00000000       0.00000000       0.00000000       0.00000000       0.00000000       0.00000000       0.00000000       0.00000000       0.00000000
H       -0.51674572       1.87611771       0.88710739       0.00000000       0.00000000       0.00000000       0.00000000       0.00000000       0.00000000       0.00000000       0.00000000       0.00000000       0.00000000       0.00000000       0.00000000
H        0.52377121      -0.38912295       0.88824082       0.00000000       0.00000000       0.00000000       0.00000000       0.00000000       0.00000000       0.00000000       0.00000000       0.00000000       0.00000000       0.00000000       0.00000000
H       -1.02027544      -0.40507261       0.01690670       0.00000000       0.00000000       0.00000000       0.00000000       0.00000000       0.00000000       0.00000000       0.00000000       0.00000000       0.00000000       0.00000000       0.00000000
H        0.69529573      -1.40179568      -1.20148495       0.00000000       0.00000000       0.00000000       0.00000000       0.00000000       0.00000000       0.00000000       0.00000000       0.00000000       0.00000000       0.00000000       0.00000000
9
Properties=species:S:1:pos:R:3:forces:R:3:my_tensor:R:9 A=39.37691 B=10.04033 C=8.90353 mu=1.1502 alpha=28.13 epsHOMO=-0.2525 epsLUMO=0.091 epsgap=0.3435 <R2>=187.1015 zpve=0.079534 U0=-100.0 U=-154.956045 H=-154.9551 G=-154.985747 Cv=12.934 pbc="F F F"
C       -0.01482147       1.39241234       0.00567104       0.00000000       0.00000000       0.00000000       0.00000000       0.00000000       0.00000000       0.00000000       0.00000000       0.00000000       0.00000000       0.00000000       0.00000000
O       -0.00471537      -0.01360660       0.01459658       0.00000000       0.00000000       0.00000000       0.00000000       0.00000000       0.00000000       0.00000000       0.00000000       0.00000000       0.00000000       0.00000000       0.00000000
C        0.63794893      -0.55329676      -1.11358232       0.00000000       0.00000000       0.00000000       0.00000000       0.00000000       0.00000000       0.00000000       0.00000000       0.00000000       0.00000000       0.00000000       0.00000000
H        1.00528358       1.81015807       0.00465631       0.00000000       0.00000000       0.00000000       0.00000000       0.00000000       0.00000000       0.00000000       0.00000000       0.00000000       0.00000000       0.00000000       0.00000000
H       -0.54689560       1.79343530      -0.87251051       0.00000000       0.00000000       0.00000000       0.00000000       0.00000000       0.00000000       0.00000000       0.00000000       0.00000000       0.00000000       0.00000000       0.00000000
H       -0.53002895       1.72291969       0.91101696       0.00000000       0.00000000       0.00000000       0.00000000       0.00000000       0.00000000       0.00000000       0.00000000       0.00000000       0.00000000       0.00000000       0.00000000
H        0.13993792      -0.25599333      -2.05098375       0.00000000       0.00000000       0.00000000       0.00000000       0.00000000       0.00000000       0.00000000       0.00000000       0.00000000       0.00000000       0.00000000       0.00000000
H        1.69265275      -0.23868382      -1.17477743       0.00000000       0.00000000       0.00000000       0.00000000       0.00000000       0.00000000       0.00000000       0.00000000       0.00000000       0.00000000       0.00000000       0.00000000
H        0.59959435      -1.64180161      -1.02407616       0.00000000       0.00000000       0.00000000       0.00000000       0.00000000       0.00000000       0.00000000       0.00000000       0.00000000       0.00000000       0.00000000       0.00000000
9
Properties=species:S:1:pos:R:3:forces:R:3:my_tensor:R:9 A=20.15852 B=20.15302 C=12.5891 mu=0.0005 alpha=30.82 epsHOMO=-0.2888 epsLUMO=0.1042 epsgap=0.393 <R2>=155.8145 zpve=0.081231 U0=-100.0 U=-117.821426 H=-117.820482 G=-117.849087 Cv=11.041 pbc="F F F"
C       -0.01193280       1.51433198       0.01031700       0.00000000       0.00000000       0.00000000       0.00000000       0.00000000       0.00000000       0.00000000       0.00000000       0.00000000       0.00000000       0.00000000       0.00000000
C        1.30299118       0.77886562      -0.00617842       0.00000000       0.00000000       0.00000000       0.00000000       0.00000000       0.00000000       0.00000000       0.00000000       0.00000000       0.00000000       0.00000000       0.00000000
C        0.00867174       0.00767042       0.00201032       0.00000000       0.00000000       0.00000000       0.00000000       0.00000000       0.00000000       0.00000000       0.00000000       0.00000000       0.00000000       0.00000000       0.00000000
H       -0.30541464       2.01702117       0.92533239       0.00000000       0.00000000       0.00000000       0.00000000       0.00000000       0.00000000       0.00000000       0.00000000       0.00000000       0.00000000       0.00000000       0.00000000
H       -0.32275498       2.02680156      -0.89347839       0.00000000       0.00000000       0.00000000       0.00000000       0.00000000       0.00000000       0.00000000       0.00000000       0.00000000       0.00000000       0.00000000       0.00000000
H        1.88493396       0.79145020      -0.92119393       0.00000000       0.00000000       0.00000000       0.00000000       0.00000000       0.00000000       0.00000000       0.00000000       0.00000000       0.00000000       0.00000000       0.00000000
H        1.90226631       0.78165391       0.89766373       0.00000000       0.00000000       0.00000000       0.00000000       0.00000000       0.00000000       0.00000000       0.00000000       0.00000000       0.00000000       0.00000000       0.00000000
H       -0.27088043      -0.51289125       0.91137474       0.00000000       0.00000000       0.00000000       0.00000000       0.00000000       0.00000000       0.00000000       0.00000000       0.00000000       0.00000000       0.00000000       0.00000000