3
Lattice="3.319520950317383 -0.0 0.0 -0.0 3.319520950317383 0.0 -1.6597604751586914 -1.6597604751586914 5.175168991088867" Properties=species:S:1:pos:R:3:forces:R:3 energy=-13.43730354309082 pbc="T T T"
Ba       0.00000000       0.00000000       0.00000000       0.00034689       0.00363674      -0.00215385
Ni       0.00000000       0.00000000       2.83045268       0.00011448      -0.00024311      -0.00555441
Ni       1.65976048       1.65976048       2.34471631      -0.00046133      -0.00339367       0.00770830
3
Lattice="1.6763279438018799 -1.6763279438018799 1.6763279438018799 3.0653350353240967 3.0653350353240967 0.0 -3.0653350353240967 0.0 3.0653350353240967" Properties=species:S:1:pos:R:3:forces:R:3 energy=-24.737916946411133 pbc="T T T"
Hf       0.00000000       0.00000000       0.00000000       0.00097327      -0.00182453      -0.00227459
V       -0.00640725       0.00640725       3.05892777      -0.00166300      -0.00309424       0.00578358
V        1.68273520       1.38259983       1.68273520       0.00068976       0.00491878      -0.00350903
3
Lattice="2.3467421531677246 -2.3467421531677246 2.3467421531677246 2.943209648132324 2.943209648132324 -0.0 -2.943209648132324 -0.0 2.943209648132324" Properties=species:S:1:pos:R:3:forces:R:3 energy=-26.97365951538086 pbc="T T T"
Sm       1.76331818       1.17989302       1.76331818       0.00057652       0.00502709       0.00048901
Os       1.95562232       0.98758882       4.89883184       0.01146226       0.00628256      -0.00089936
Os       0.97454631      -0.97454494       3.91775608      -0.01203877      -0.01130965       0.00041034
3
Lattice="2.615643262863159 0.0 0.0 0.0 2.615643262863159 0.0 -1.3078216314315796 -1.3078216314315796 8.185998916625977" Properties=species:S:1:pos:R:3:forces:R:3 energy=-21.028621673583984 pbc="T T T"
Nd       0.00000000       0.00000000       0.00851967       0.00213648      -0.00268784       0.01139930
Nd       0.00000000       0.00000000       5.44881248      -0.00107893       0.00049542      -0.01295745
Nb       1.30782163       1.30782163       2.72866607      -0.00105755       0.00219244       0.00155817
3
Lattice="-1.3624414205551147 1.3624414205551147 -1.926816701889038 1.3624409437179565 -1.3624409437179565 -1.9268172979354858 -4.678328037261963 -4.678328514099121 1.9268170595169067" Properties=species:S:1:pos:R:3:forces:R:3 energy=-28.337902069091797 pbc="T T T"
Pm       0.00000000       0.00000000       0.00000000       0.00726012       0.00821079       0.00184770
Os      -2.94064498      -2.94064498       0.00000000      -0.43792212      -0.43348673      -0.00625105
Os      -1.73768353      -1.73768306      -1.92681706       0.43066201       0.42527598       0.00440335
3
Lattice="3.761378526687622 0.0 0.0 0.0 3.761378526687622 -0.0 -1.880689263343811 -1.880689263343811 4.919428825378418" Properties=species:S:1:pos:R:3:forces:R:3 energy=-9.951986312866211 pbc="T T T"
Er       0.00000000       0.00000000       0.12345934      -0.00053106      -0.00449907      -0.00197886
Er       0.00000000       0.00000000       3.15616059      -0.00636096       0.00704148      -0.00316790
Al       1.88068926       1.88068926       1.63980997       0.00689202      -0.00254242       0.00514677
3
Lattice="2.9061434268951416 0.0 -0.0 0.0 2.9061434268951416 0.0 -1.4530717134475708 -1.4530717134475708 5.716741561889648" Properties=species:S:1:pos:R:3:forces:R:3 energy=-21.894275665283203 pbc="T T T"
Tc       0.00000000       0.00000000       3.57362080      -0.00281922       0.00181609       0.42645249
Tc       1.45307171       1.45307171       2.14312077       0.00413067       0.00066572      -0.43214282
Hg       0.00000000       0.00000000       0.00000000      -0.00131142      -0.00248180       0.00569027
3
Lattice="3.4914979934692383 -0.0 0.0 -0.0 3.4914979934692383 0.0 -1.7457489967346191 -1.7457489967346191 11.585183143615723" Properties=species:S:1:pos:R:3:forces:R:3 energy=-2.2262589931488037 pbc="T T T"
Ti       1.74574900       1.74574900       3.86172724      -0.00000000      -0.00000000      -0.00000000
Xe       1.74574900       1.74574900      11.48392296      -0.00018109      -0.00145193      -0.02514510
Xe       0.00000000       0.00000000       7.82471466       0.00018108       0.00145194       0.02514510
3
Lattice="3.211198568344116 0.0 0.0 -0.0 3.211198568344116 0.0 -1.605599284172058 -1.605599284172058 4.179919242858887" Properties=species:S:1:pos:R:3:forces:R:3 energy=-18.62247657775879 pbc="T T T"
Ga       0.00000000       0.00000000       2.81231427       0.00188556       0.00417671       0.00361387
Ga       1.60559928       1.60559928       1.36760509      -0.00045185      -0.00126518      -0.00908791
Re       0.00000000       0.00000000       0.00000000      -0.00143369      -0.00291149       0.00547404
3
Lattice="1.36557137966156 -1.36557137966156 1.36557137966156 3.0807220935821533 3.0807220935821533 0.0 -3.0807220935821533 -0.0 3.0807220935821533" Properties=species:S:1:pos:R:3:forces:R:3 energy=-12.695655822753906 pbc="T T T"
Li      -0.34412110       0.34412110       2.73660088       0.00364034      -0.00074576       0.00053424
Li       1.70969307       1.37102890       1.70969307      -0.00486790       0.00280568       0.00010290
Ru       0.00000032      -0.00000032       0.00000032       0.00122757      -0.00205991      -0.00063712
3
Lattice="3.1958072185516357 -0.0 0.0 -0.0 3.1958072185516357 0.0 -1.5979036092758179 -1.5979036092758179 6.452485084533691" Properties=species:S:1:pos:R:3:forces:R:3 energy=-20.154726028442383 pbc="T T T"
La       0.00000000       0.00000000       0.68816441       0.00283255      -0.00035295       0.02954042
La       0.00000000       0.00000000       3.61349249      -0.00031525       0.00032459      -0.02811021
N        1.59790361       1.59790361       2.15082836      -0.00251730       0.00002836      -0.00143029
2
Lattice="-2.094250440597534 2.094250440597534 -1.6390308141708374 2.094250440597534 -2.094250440597534 -1.6390308141708374 -3.895812511444092 -3.895812511444092 0.0" Properties=species:S:1:pos:R:3:forces:R:3 energy=-3.3685736656188965 pbc="T T T"
Ti       0.00000000       0.00000000       0.00000000      -0.00065456       0.00345929       0.00186744
Xe      -1.94790626      -1.94790626      -1.63903081       0.00065456      -0.00345929      -0.00186741
2
Lattice="3.8298025131225586 0.0 0.0 0.0 3.8298025131225586 0.0 0.0 0.0 3.8298025131225586" Properties=species:S:1:pos:R:3:forces:R:3 energy=-8.92358112335205 pbc="T T T"
Gd       1.91490126       1.91490126       1.91490126       0.00070798       0.00275797       0.00026434
Bi       0.00000000       0.00000000       0.00000000      -0.00070798      -0.00275797      -0.00026434
2
Lattice="3.1887214183807373 -0.0 -0.0 0.0 3.1887214183807373 0.0 0.0 0.0 3.1887214183807373" Properties=species:S:1:pos:R:3:forces:R:3 energy=-16.520526885986328 pbc="T T T"
Sc       1.59436071       1.59436071       1.59436071       0.00200230       0.00087062       0.00000913
Ir       0.00000000       0.00000000       0.00000000      -0.00200233      -0.00087063      -0.00000911
3
Lattice="3.5827956199645996 -0.0 -0.0 -0.0 3.5827956199645996 -0.0 -1.7913978099822998 -1.7913978099822998 11.410103797912598" Properties=species:S:1:pos:R:3:forces:R:3 energy=-0.4802680015563965 pbc="T T T"
Ca       3.58279562       0.00000000       0.00000000      -0.00000000      -0.00000000      -0.00000000
He       0.00000000       0.00000000       6.51818323       0.00045256      -0.00026457       0.01162810
He       1.79139781       1.79139781       4.89192104      -0.00045256       0.00026457      -0.01162810
2
Lattice="-2.0449814796447754 2.0449814796447754 -2.8920793533325195 2.0449821949005127 -2.0449821949005127 -2.892078399658203 -3.3924431800842285 -3.3924431800842285 0.0" Properties=species:S:1:pos:R:3:forces:R:3 energy=-3.300023317337036 pbc="T T T"
Rb       0.00000000       0.00000000       0.00000000      -0.00062061      -0.00112827       0.00401689
Tl      -1.69622135      -1.69622195      -2.89207888       0.00062061       0.00112827      -0.00401688
3
Lattice="1.5118452310562134 -1.5118452310562134 1.5118452310562134 2.938154458999634 2.938154458999634 0.0 -2.938154458999634 0.0 2.938154458999634" Properties=species:S:1:pos:R:3:forces:R:3 energy=-18.0214900970459 pbc="T T T"
Cu       1.48333347       1.45482075       1.48333323       0.00035307       0.00304302       0.00181287
Rh       0.10055076       2.83760357       3.03870511      -0.00327085      -0.00709295      -0.00849350
Rh      -0.07203829       0.07203803       2.86611605       0.00291777       0.00404994       0.00668063
3
Lattice="-1.7052899599075317 1.7052899599075317 -1.7040033340454102 1.7052899599075317 -1.7052899599075317 -1.7040033340454102 -4.672766208648682 -4.672766208648682 1.7040033340454102" Properties=species:S:1:pos:R:3:forces:R:3 energy=-26.910921096801758 pbc="T T T"
Sb       0.00000000       0.00000000      -3.40800595       0.00150177       0.00367916       0.00198131
W       -3.01101923      -3.01101923       0.00000089      -0.22662154      -0.21084186       0.00854805
W       -1.66174710      -1.66174710      -1.70400250       0.22511975       0.20716269      -0.01052937
3
Lattice="3.3517515659332275 0.0 -0.0 0.0 3.3517515659332275 -0.0 -1.6758757829666138 -1.6758757829666138 7.028389930725098" Properties=species:S:1:pos:R:3:forces:R:3 energy=-8.140992164611816 pbc="T T T"
Ni       1.67587578       1.67587578       2.34279656       0.00161581       0.00052044       0.00519602
I        0.00000000       0.00000000       0.67538095       0.00626730      -0.00166611      -0.30986893
I        0.00000000       0.00000000       4.01021242      -0.00788304       0.00114572       0.30467293
3
Lattice="1.8006020784378052 -1.8006020784378052 1.8006020784378052 2.34724497795105 2.34724497795105 -0.0 -2.34724497795105 0.0 2.34724497795105" Properties=species:S:1:pos:R:3:forces:R:3 energy=-23.727479934692383 pbc="T T T"
Os       0.00000000       0.00000000       0.00000000       0.01039588      -0.01407047      -0.01691073
O        0.67670715      -0.67670715       3.02395225       0.00831318       0.01041097      -0.00036331
O        1.12389493       1.22335017       1.12389493      -0.01870910       0.00365954       0.01727399
3
Lattice="-1.6204107999801636 1.6204107999801636 -1.3408786058425903 1.6204107999801636 -1.6204107999801636 -1.3408786058425903 -4.775290489196777 -4.775290489196777 1.3408786058425903" Properties=species:S:1:pos:R:3:forces:R:3 energy=-20.77715301513672 pbc="T T T"
Li      -3.15488005      -6.39570093       0.00000000      -0.00352461      -0.00085769       0.00238937
Ir      -3.20120883      -3.20120835       0.00000000       0.06372532       0.05557968      -0.00091164
Ir      -1.57408226      -1.57408178      -1.34087861      -0.06020069      -0.05472197      -0.00147767
3
Lattice="3.231633424758911 -0.0 -0.0 -0.0 3.231633424758911 -0.0 -1.6158167123794556 -1.6158167123794556 6.766179084777832" Properties=species:S:1:pos:R:3:forces:R:3 energy=28.273082733154297 pbc="T T T"
Ce       0.00000000       0.00000000       4.53303337      -0.00003827       0.00190464      -0.01142031
Ce       1.61581671       1.61581671       2.23314571      -0.00461790       0.00188592       0.00191971
Pr       0.00000000       0.00000000       0.00000000       0.00465617      -0.00379056       0.00950059
3
Lattice="2.4588935375213623 -2.4588935375213623 2.4588935375213623 1.9361118078231812 1.9361118078231812 -0.0 -1.9361118078231812 -0.0 1.9361118078231812" Properties=species:S:1:pos:R:3:forces:R:3 energy=-7.526681900024414 pbc="T T T"
Zn       1.93611264       1.93611264       0.00000000      -0.00273672      -0.00567486       0.00209607
H        1.24440885      -1.24440718       3.18051982      -0.00139467       0.00277856       0.00033848
H        1.21448624       0.72162718       1.21448541       0.00413141       0.00289632      -0.00243453
3
Lattice="1.831897497177124 -1.831897497177124 1.831897497177124 4.696647644042969 4.696647644042969 0.0 -4.696647644042969 0.0 4.696647644042969" Properties=species:S:1:pos:R:3:forces:R:3 energy=-1.6829261779785156 pbc="T T T"
Pr       0.00000000       0.00000000       0.00000000      -0.00298021      -0.00196893      -0.00454255
Kr       0.18029770      -0.18029770       4.87694550       0.00121918      -0.00350653       0.00323165
Kr       1.65159976       3.04504800       1.65159976       0.00176106       0.00547545       0.00131089
3
Lattice="1.779396653175354 -1.779396653175354 1.779396653175354 4.457633972167969 4.457633972167969 0.0 -4.457633972167969 -0.0 4.457633972167969" Properties=species:S:1:pos:R:3:forces:R:3 energy=-0.45062828063964844 pbc="T T T"
Ar      -1.48587751       1.48587751       2.97175622      -0.00061233      -0.00248724      -0.00061305
Ar       1.48587763       2.97175622       1.48587739       0.00380288       0.00304320      -0.00071497
Cd       0.00000011      -0.00000011      -0.00000022      -0.00319055      -0.00055596       0.00132804
3
Lattice="3.5499796867370605 -0.0 0.0 -0.0 3.5499796867370605 0.0 -1.7749898433685303 -1.7749898433685303 6.062854766845703" Properties=species:S:1:pos:R:3:forces:R:3 energy=-10.15959644317627 pbc="T T T"
Sn       0.00000000       0.00000000       0.00000000       0.00278294       0.00217486      -0.00869008
Cl       0.00000000       0.00000000       4.46172476       0.00421986      -0.00006758      -0.03383972
Cl       1.77498984       1.77498984       1.60112989      -0.00700278      -0.00210727       0.04252984
3
Lattice="3.544924020767212 -0.0 0.0 0.0 3.544924020767212 0.0 -1.772462010383606 -1.772462010383606 9.5029296875" Properties=species:S:1:pos:R:3:forces:R:3 energy=-7.130791664123535 pbc="T T T"
Sn       0.00000000       0.00000000       5.71283197      -0.00393164       0.00289971      -0.75251424
Sn       1.77246201       1.77246201       3.79009795       0.00393164      -0.00289971       0.75251424
Xe       0.00000000       0.00000000       0.00000000      -0.00000000      -0.00000000      -0.00000000
2
Lattice="-1.5163036584854126 1.5163036584854126 -2.144376516342163 1.5163031816482544 -1.5163031816482544 -2.1443772315979004 -2.1443769931793213 -2.1443769931793213 0.0" Properties=species:S:1:pos:R:3:forces:R:3 energy=-12.679278373718262 pbc="T T T"
Ge       0.00000000       0.00000000       0.00000000      -0.00482704       0.00282743      -0.00089259
Rh      -1.07218874      -1.07218826      -2.14437675       0.00482703      -0.00282744       0.00089263
3
Lattice="-1.541791319847107 1.541791319847107 -2.1804919242858887 1.5417908430099487 -1.5417908430099487 -2.180492639541626 -2.9804394245147705 -2.9804399013519287 2.180492401123047" Properties=species:S:1:pos:R:3:forces:R:3 energy=-23.042661666870117 pbc="T T T"
Hf      -1.98695898      -1.98695898       0.00000000       0.00098289      -0.00282365      -0.00143196
Co      -0.97011364      -0.97011316      -2.18049240      -0.00200904      -0.00184765      -0.00096628
Co      -0.02336485      -0.02336485       0.00000000       0.00102617       0.00467134       0.00239822
3
Lattice="2.4522387981414795 -0.0 0.0 -0.0 2.4522387981414795 0.0 -1.2261193990707397 -1.2261193990707397 5.001511573791504" Properties=species:S:1:pos:R:3:forces:R:3 energy=-24.17909049987793 pbc="T T T"
V        0.00000000       0.00000000       0.00000000      -0.00662391      -0.01601802      -0.00476738
O        0.00000000       0.00000000       3.91500711       0.00217864       0.01007988       0.22004521
O        1.22611940       1.22611940       1.08650458       0.00444511       0.00593844      -0.21527767
3
Lattice="-1.0523167848587036 1.0523167848587036 -1.4892747402191162 1.0523167848587036 -1.0523167848587036 -1.4892747402191162 -7.2107672691345215 -7.2107672691345215 1.4892747402191162" Properties=species:S:1:pos:R:3:forces:R:3 energy=-3.4439938068389893 pbc="T T T"
F       -2.44751000      -2.44751000      -1.48927498      -0.08042119      -0.08101889      -0.00018357
F       -7.16684675      -7.16684675      -1.48927498       0.08349887       0.08245871       0.00006514
Ne      -4.80717850      -4.80717850      -0.00000021      -0.00307769      -0.00143978       0.00011843
2
Lattice="3.502943515777588 0.0 -0.0 0.0 3.502943515777588 -0.0 0.0 -0.0 3.502943515777588" Properties=species:S:1:pos:R:3:forces:R:3 energy=-4.242667198181152 pbc="T T T"
Se       1.75147176       1.75147176       1.75147176       0.00028832      -0.00122968      -0.00265345
Br       0.00000000       0.00000000       0.00000000      -0.00028834       0.00122968       0.00265345
2
Lattice="-1.6472975015640259 1.6472975015640259 -2.32962965965271 1.6472969055175781 -1.6472969055175781 -2.3296303749084473 -2.3296306133270264 -2.3296306133270264 0.0" Properties=species:S:1:pos:R:3:forces:R:3 energy=-12.583892822265625 pbc="T T T"
Ru       0.00000000       0.00000000       0.00000000       0.00184446       0.00072235      -0.00233944
Pb      -1.16481555      -1.16481507      -2.32963014      -0.00184442      -0.00072235       0.00233942
3
Lattice="-1.2893285751342773 1.2893285751342773 -1.8234102725982666 1.2893280982971191 -1.2893280982971191 -1.8234108686447144 -7.7400383949279785 -7.740038871765137 1.8234105110168457" Properties=species:S:1:pos:R:3:forces:R:3 energy=-4.276510238647461 pbc="T T T"
As      -5.16002607      -5.16002607       0.00000000      -0.00518873      -0.00531011       0.00223988
Ne      -2.31597376      -2.31597328      -1.82341051      -0.00049607       0.00150769       0.00067188
Ne      -0.26403975      -0.26403975       0.00000000       0.00568481       0.00380241      -0.00291177
3
Lattice="-1.6919066905975342 1.6919066905975342 -2.3899364471435547 1.6919060945510864 -1.6919060945510864 -2.389937162399292 -5.13467264175415 -5.134673595428467 2.389936923980713" Properties=species:S:1:pos:R:3:forces:R:3 energy=-10.354011535644531 pbc="T T T"
Mg      -3.44276810      -6.82658100      -0.00000037      -0.00119298       0.00333458      -0.00041009
Bi      -3.65093756      -3.65093756       0.00000000       0.02067368       0.01203221       0.00107228
Bi      -1.48373866      -1.48373818      -2.38993692      -0.01948071      -0.01536679      -0.00066220
3
Lattice="-1.6918838024139404 1.6918838024139404 -2.3926753997802734 1.6918833255767822 -1.6918833255767822 -2.3926761150360107 -5.0172343254089355 -5.017234802246094 2.3926758766174316" Properties=species:S:1:pos:R:3:forces:R:3 energy=-17.92108917236328 pbc="T T T"
Nb       1.69188333      -1.69188333      -2.39267540       0.00139114      -0.00035448       0.00009521
Te      -3.88299084      -3.88299084       0.00000068       0.90423453       0.90639210      -0.00091684
Te      -1.13424385      -1.13424337      -2.39267516      -0.90562564      -0.90603763       0.00082162
3
Lattice="2.994807243347168 -0.0 0.0 -0.0 2.994807243347168 0.0 -1.497403621673584 -1.497403621673584 4.545950412750244" Properties=species:S:1:pos:R:3:forces:R:3 energy=-31.27555274963379 pbc="T T T"
V        1.49740362       1.49740362       1.51531649       0.00002542      -0.00004691      -0.00504392
Tc       0.00000000       0.00000000       0.06118242       0.00546904       0.00403131       0.00057733
Tc       0.00000000       0.00000000       2.96945047      -0.00549444      -0.00398441       0.00446655
3
Lattice="4.664098739624023 -0.0 -0.0 -0.0 4.664098739624023 -0.0 -2.3320493698120117 -2.3320493698120117 5.072357177734375" Properties=species:S:1:pos:R:3:forces:R:3 energy=-8.259411811828613 pbc="T T T"
K        0.00000000       0.00000000       3.53053212      -0.00091404      -0.00102859      -0.04224481
K        2.33204937       2.33204937       1.54182518       0.00099974      -0.00378534       0.03951850
Te       0.00000000       0.00000000       0.00000000      -0.00008570       0.00481393       0.00272628
3
Lattice="3.832948923110962 0.0 0.0 -0.0 3.832948923110962 0.0 -1.916474461555481 -1.916474461555481 6.864635944366455" Properties=species:S:1:pos:R:3:forces:R:3 energy=-9.99560260772705 pbc="T T T"
Er       0.00000000       0.00000000       0.00000000      -0.00087033       0.00214899      -0.00017477
I        0.00000000       0.00000000       5.04812002       0.00279095      -0.00074066       0.00625657
I        1.91647446       1.91647446       1.81651592      -0.00192064      -0.00140831      -0.00608182
3
Lattice="3.2456064224243164 -0.0 -0.0 -0.0 3.2456064224243164 -0.0 -1.6228032112121582 -1.6228032112121582 5.833318710327148" Properties=species:S:1:pos:R:3:forces:R:3 energy=-17.250526428222656 pbc="T T T"
Sr       0.00000000       0.00000000       0.00000000       0.00182079       0.00000734       0.00634738
V        0.00000000       0.00000000       3.34327698      -0.01346619      -0.00089021      -0.00193932
V        1.62280321       1.62280321       2.49004149       0.01164538       0.00088283      -0.00440807
3
Lattice="2.698544979095459 -2.698544979095459 2.698544979095459 2.872373104095459 2.872373104095459 0.0 -2.872373104095459 -0.0 2.872373104095459" Properties=species:S:1:pos:R:3:forces:R:3 energy=-26.39602279663086 pbc="T T T"
La       0.00000000       0.00000000       0.00000000       0.00115814       0.00368717       0.00003768
Tc       0.29670736      -0.29670736       3.16908050       0.01169591      -0.00962998      -0.00151540
Tc       2.40183759       0.47053567       2.40183759      -0.01285404       0.00594282       0.00147773
3
Lattice="3.9756240844726562 -0.0 -0.0 -0.0 3.9756240844726562 -0.0 -1.9878120422363281 -1.9878120422363281 4.913969039916992" Properties=species:S:1:pos:R:3:forces:R:3 energy=-15.60403823852539 pbc="T T T"
Nd       0.00000000       0.00000000       0.00000000       0.00128436       0.00328229       0.00773320
Sb       0.00000000       0.00000000       3.39982867       0.00512004      -0.00245193       0.00164019
Sb       1.98781204       1.98781204       1.51414049      -0.00640440      -0.00083034      -0.00937340
3
Lattice="1.824049472808838 -1.824049472808838 1.824049472808838 3.2168986797332764 3.2168986797332764 -0.0 -3.2168986797332764 -0.0 3.2168986797332764" Properties=species:S:1:pos:R:3:forces:R:3 energy=-15.350828170776367 pbc="T T T"
Sc       0.22184891      -0.22184891       3.43874884       0.00812295      -0.00416559       0.00804391
Sc       1.60219967       1.61469901       1.60220098      -0.01204656       0.00564695      -0.00950066
Pd      -0.00000043       0.00000043       0.00000086       0.00392358      -0.00148135       0.00145675
3
Lattice="3.4234249591827393 -0.0 0.0 0.0 3.4234249591827393 -0.0 -1.7117124795913696 -1.7117124795913696 5.037437915802002" Properties=species:S:1:pos:R:3:forces:R:3 energy=-15.49439811706543 pbc="T T T"
Nd       0.00000000       0.00000000      -0.31341210       0.00046097      -0.00442302       0.00346066
Nd       0.00000000       0.00000000       3.67170477      -0.00053081       0.00234106      -0.00205145
Al       1.71171248       1.71171248       1.67914641       0.00006983       0.00208198      -0.00140922
3
Lattice="3.7550618648529053 0.0 0.0 0.0 3.7550618648529053 -0.0 -1.8775309324264526 -1.8775309324264526 4.336762428283691" Properties=species:S:1:pos:R:3:forces:R:3 energy=-12.167783737182617 pbc="T T T"
Ho       0.00000000       0.00000000       0.14304203       0.00247775      -0.00163898      -0.33371764
Ho       0.00000000       0.00000000       2.74813342       0.00349835      -0.00174065       0.33439752
Si       1.87753093       1.87753093       1.44558775      -0.00597611       0.00337964      -0.00067984
3
Lattice="3.0262091159820557 -0.0 -0.0 0.0 3.0262091159820557 0.0 -1.5131045579910278 -1.5131045579910278 5.362575054168701" Properties=species:S:1:pos:R:3:forces:R:3 energy=8.297727584838867 pbc="T T T"
Ce       0.00000000       0.00000000       0.00000000      -0.00205608      -0.00738537       0.00794399
Cu       0.00000000       0.00000000       3.27544045       0.00007591       0.00599047      -0.18292919
Cu       1.51310456       1.51310456       2.08713484       0.00198018       0.00139491       0.17498517
3
Lattice="2.998012065887451 0.0 -0.0 -0.0 2.998012065887451 -0.0 -1.4990060329437256 -1.4990060329437256 4.317602634429932" Properties=species:S:1:pos:R:3:forces:R:3 energy=-17.870271682739258 pbc="T T T"
Mn       0.00000000       0.00000000       0.00000000       0.00089582      -0.00260916      -0.00286420
Al       0.00000000       0.00000000       3.00534272       0.00008073       0.00380265       0.00213064
Al       1.49900603       1.49900603       1.31225967      -0.00097654      -0.00119351       0.00073356
3
Lattice="3.288438558578491 -0.0 0.0 -0.0 3.288438558578491 0.0 -1.6442192792892456 -1.6442192792892456 9.656332969665527" Properties=species:S:1:pos:R:3:forces:R:3 energy=-12.55564022064209 pbc="T T T"
Hf       1.64421928       1.64421928       8.95796680      -0.00009695      -0.00745409       0.00751418
Hf       0.00000000       0.00000000       7.13592100       0.00009701       0.00745407      -0.00751418
Xe       1.64421928       1.64421928       3.21877718      -0.00000000      -0.00000000      -0.00000000
3
Lattice="3.6341562271118164 0.0 0.0 0.0 3.6341562271118164 0.0 -1.8170781135559082 -1.8170781135559082 7.187903881072998" Properties=species:S:1:pos:R:3:forces:R:3 energy=-3.3181936740875244 pbc="T T T"
Cl       1.81707811       1.81707811       5.99258709      -0.00618995      -0.00024738       0.00171075
Cl       0.00000000       0.00000000       5.98725128       0.00184191      -0.00290001       0.00048352
Ne       1.81707811       1.81707811       2.39596725       0.00434804       0.00314739      -0.00219427
2
Lattice="-1.4005459547042847 1.4005459547042847 -1.9806716442108154 1.4005464315414429 -1.4005464315414429 -1.9806710481643677 -2.8231606483459473 -2.8231606483459473 0.0" Properties=species:S:1:pos:R:3:forces:R:3 energy=-8.50705337524414 pbc="T T T"
Pd       0.00000000       0.00000000       0.00000000       0.00136569      -0.00067033       0.00118930
Au      -1.41158009      -1.41158056      -1.98067141      -0.00136569       0.00067033      -0.00118929
3
Lattice="-1.5648798942565918 1.5648798942565918 -1.320430874824524 1.5648798942565918 -1.5648798942565918 -1.320430874824524 -9.73727035522461 -9.73727035522461 1.320430874824524" Properties=species:S:1:pos:R:3:forces:R:3 energy=-16.635602951049805 pbc="T T T"
He       0.00000000       0.00000000       0.00000000      -0.00000000      -0.00000000      -0.00000000
Ru      -5.63100338      -5.63100338       0.00000000       0.01335001       0.00423822       0.00311645
Ru      -4.10626745      -4.10626745      -1.32043087      -0.01335007      -0.00423828      -0.00311645
3
Lattice="1.9846553802490234 -1.9846553802490234 1.9846553802490234 3.7738304138183594 3.7738304138183594 0.0 -3.7738304138183594 0.0 3.7738304138183594" Properties=species:S:1:pos:R:3:forces:R:3 energy=-12.011504173278809 pbc="T T T"
Gd       1.91949606       1.85433578       1.91949606       0.00217811      -0.00029707       0.00170047
Pb       1.82629752      -1.82629609       1.82629752       0.00316870      -0.00509400      -0.00029748
Pb       0.22351953      -0.22351815       3.99734998      -0.00534682       0.00539107      -0.00140300
3
Lattice="1.7186259031295776 -1.7186259031295776 1.7186259031295776 3.496443748474121 3.496443748474121 0.0 -3.496443748474121 0.0 3.496443748474121" Properties=species:S:1:pos:R:3:forces:R:3 energy=-16.015609741210938 pbc="T T T"
Hf       0.09785058      -0.09785058       0.09785058       0.00562889      -0.00212992       0.00127524
Hf      -0.11758081       0.11758081       3.37886310      -0.00512897       0.00004865      -0.00041215
Cd       1.73835683       1.75808704       1.73835683      -0.00049992       0.00208128      -0.00086310
3
Lattice="2.3836023807525635 -0.0 -0.0 0.0 2.3836023807525635 0.0 -1.1918011903762817 -1.1918011903762817 12.338167190551758" Properties=species:S:1:pos:R:3:forces:R:3 energy=-4.774536609649658 pbc="T T T"
Ne       0.00000000       0.00000000       7.69374990       0.00011064      -0.00021588       0.00215555
Ne       1.19180107       1.19180107       4.64441681      -0.00011064       0.00021588      -0.00215556
P        0.00000000       0.00000000       0.00000000      -0.00000000      -0.00000000      -0.00000000
3
Lattice="-1.832535743713379 1.832535743713379 -1.6349656581878662 1.832535743713379 -1.832535743713379 -1.6349656581878662 -5.548013687133789 -5.548013687133789 1.6349656581878662" Properties=species:S:1:pos:R:3:forces:R:3 energy=-14.86894702911377 pbc="T T T"
Cs      -3.69867659      -3.69867659       0.00000000       0.00257097       0.00176243       0.00228869
V       -1.46460617      -1.46460617      -1.63496566       0.05404045       0.05602404       0.01407146
V       -0.38473320      -0.38473320       0.00000000      -0.05661140      -0.05778650      -0.01636013
2
Lattice="-1.3891373872756958 1.3891373872756958 -1.963841199874878 1.389137864112854 -1.389137864112854 -1.9638406038284302 -2.767516613006592 -2.767516613006592 -0.0" Properties=species:S:1:pos:R:3:forces:R:3 energy=-11.374970436096191 pbc="T T T"
Ti       0.00000000       0.00000000       0.00000000       0.00246759       0.00344640      -0.00176926
Ga      -1.38375807      -1.38375843      -1.96384084      -0.00246759      -0.00344640       0.00176924
2
Lattice="3.512155532836914 0.0 -0.0 0.0 3.512155532836914 -0.0 0.0 -0.0 3.512155532836914" Properties=species:S:1:pos:R:3:forces:R:3 energy=-8.459918975830078 pbc="T T T"
Yb       0.00000000       0.00000000       0.00000000       0.00475615       0.00344900      -0.00190497
Ti       1.75607777       1.75607777       1.75607777      -0.00475618      -0.00344898       0.00190496
3
Lattice="1.4707332849502563 -1.4707332849502563 1.4707332849502563 3.178264856338501 3.178264856338501 -0.0 -3.178264856338501 0.0 3.178264856338501" Properties=species:S:1:pos:R:3:forces:R:3 energy=-11.955598831176758 pbc="T T T"