2
Lattice="-1.4005459547042847 1.4005459547042847 -1.9806716442108154 1.4005464315414429 -1.4005464315414429 -1.9806710481643677 -2.8231606483459473 -2.8231606483459473 0.0" Properties=species:S:1:pos:R:3:forces:R:3 energy=-8.501030921936035 pbc="T T T"
Pd       0.00000000       0.00000000       0.00000000      -0.00078738       0.00051350       0.00015862
Au      -1.41158009      -1.41158056      -1.98067141       0.00078738      -0.00051350      -0.00015861
3
Lattice="3.5080888271331787 -0.0 -0.0 -0.0 3.5080888271331787 -0.0 -1.7540444135665894 -1.7540444135665894 6.186501979827881" Properties=species:S:1:pos:R:3:forces:R:3 energy=-12.048362731933594 pbc="T T T"
Bi       0.00000000       0.00000000       0.25866982       0.00005129      -0.00146015      -0.05841773
Bi       0.00000000       0.00000000       3.86566520      -0.00133781       0.00038131       0.05737872
Au       1.75404441       1.75404441       2.06216741       0.00128654       0.00107884       0.00103899
3
Lattice="2.948627233505249 -2.948627233505249 2.948627233505249 2.772193670272827 2.772193670272827 0.0 -2.772193670272827 0.0 2.772193670272827" Properties=species:S:1:pos:R:3:forces:R:3 energy=-4.812743186950684 pbc="T T T"
Hg       0.04385892      -0.04385892       0.04385892      -0.00971824       0.00967525      -0.00937363
Hg       0.99782902      -0.99782902       3.77002263       0.00592740      -0.00855687       0.00936735
Au       1.90694082       0.86525291       1.90694082       0.00379084      -0.00111837       0.00000629
2
Lattice="-1.9815343618392944 1.9815343618392944 -1.3987582921981812 1.9815343618392944 -1.9815343618392944 -1.3987582921981812 -3.410003900527954 -3.410003900527954 0.0" Properties=species:S:1:pos:R:3:forces:R:3 energy=-6.998660087585449 pbc="T T T"
Au      -1.70500267      -1.70500267      -1.39875770       0.00398715      -0.00264199      -0.00005293
Se      -0.00000062      -0.00000062       0.00000062      -0.00398715       0.00264200       0.00005292
2
Lattice="-1.6768338680267334 1.6768338680267334 -2.3714001178741455 1.6768332719802856 -1.6768332719802856 -2.371400833129883 -2.371399164199829 -2.371399164199829 -0.0" Properties=species:S:1:pos:R:3:forces:R:3 energy=-10.36288833618164 pbc="T T T"
Sc       0.00000000       0.00000000       0.00000000       0.00007227      -0.00123422      -0.00079841
Au      -1.18569982      -1.18569934      -2.37140036      -0.00007225       0.00123423       0.00079840
3
Lattice="-1.7711505889892578 1.7711505889892578 -2.5042359828948975 1.77114999294281 -1.77114999294281 -2.5042366981506348 -3.5335776805877686 -3.5335781574249268 2.5042362213134766" Properties=species:S:1:pos:R:3:forces:R:3 energy=-15.729279518127441 pbc="T T T"
Pr      -1.03621006      -1.03620958      -2.50423551       0.00464804       0.00241268       0.00015719
Pr      -3.67522693      -3.67522645      -2.50423551      -0.00558098      -0.00377391       0.00086165
Au      -2.35571814      -2.35571814       0.00000071       0.00093295       0.00136124      -0.00101883
3
Lattice="-2.0866267681121826 2.0866267681121826 -1.6516697406768799 2.0866267681121826 -2.0866267681121826 -1.6516697406768799 -4.490080833435059 -4.490080833435059 1.6516697406768799" Properties=species:S:1:pos:R:3:forces:R:3 energy=-8.760224342346191 pbc="T T T"
Au      -2.97119451      -2.97119451       0.00000000      -0.00630870      -0.00801668       0.00206740
Au      -1.51888645      -1.51888645      -1.65166974       0.00866895       0.00763580       0.00107230
Br       0.00000000       0.00000000      -3.30333948      -0.00236025       0.00038088      -0.00313970
3
Lattice="2.6318252086639404 -0.0 -0.0 -0.0 2.6318252086639404 -0.0 -1.3159126043319702 -1.3159126043319702 10.193870544433594" Properties=species:S:1:pos:R:3:forces:R:3 energy=-3.077592134475708 pbc="T T T"
Au       0.00000000       0.00000000       0.00000000      -0.00056335       0.00036530       0.00180865
Ne       0.00000000       0.00000000       6.51835251       0.00026693      -0.00015280      -0.00612990
Ne       1.31591260       1.31591260       3.67551780       0.00029642      -0.00021251       0.00432125
3
Lattice="-1.414507508277893 1.414507508277893 -2.0096795558929443 1.4145070314407349 -1.4145070314407349 -2.0096800327301025 -4.624632358551025 -4.624632835388184 2.0096797943115234" Properties=species:S:1:pos:R:3:forces:R:3 energy=-12.308415412902832 pbc="T T T"
As       0.00000000       0.00000000       0.00000000      -0.00017112       0.00122642      -0.00099417
Au      -3.07460070      -3.07460070       0.00000000      -0.00030372      -0.00007311       0.00071792
Au      -1.55003214      -1.55003178      -2.00967979       0.00047482      -0.00115331       0.00027626
3
Lattice="2.7428805828094482 0.0 0.0 -0.0 2.7428805828094482 0.0 -1.3714402914047241 -1.3714402914047241 6.318625450134277" Properties=species:S:1:pos:R:3:forces:R:3 energy=-17.936952590942383 pbc="T T T"
Os       1.37144029       1.37144029       2.10620832       0.00020724      -0.00182644      -0.00095124
Au       0.00000000       0.00000000       0.06850941      -0.00263154       0.00012402      -0.00751209
Au       0.00000000       0.00000000       4.14390707       0.00242428       0.00170236       0.00846326
2
Lattice="-1.3954439163208008 1.3954439163208008 -1.9733949899673462 1.3954442739486694 -1.3954442739486694 -1.9733943939208984 -2.5723257064819336 -2.5723257064819336 0.0" Properties=species:S:1:pos:R:3:forces:R:3 energy=-8.451302528381348 pbc="T T T"
Cu      -3.96777081      -1.17688310      -1.97339439       0.00155062       0.00004652      -0.00036421
Au      -1.28616381      -1.28616428      -1.97339416      -0.00155062      -0.00004653       0.00036420
3
Lattice="-2.396714210510254 2.396714210510254 -1.5497230291366577 2.396714210510254 -2.396714210510254 -1.5497230291366577 -2.753650665283203 -2.753650665283203 1.5497230291366577" Properties=species:S:1:pos:R:3:forces:R:3 energy=-15.893232345581055 pbc="T T T"
B       -0.62442648      -0.62442648      -1.54972303      -0.01350320      -0.01135358      -0.01475678
B       -0.29345560      -0.29345560       0.00000000       0.01658712       0.01386210       0.01215284
Au      -1.83576643      -1.83576643       0.00000000      -0.00308388      -0.00250850       0.00260396
3
Lattice="4.213917255401611 -4.213917255401611 4.213917255401611 1.8034926652908325 1.8034926652908325 -0.0 -1.8034926652908325 -0.0 1.8034926652908325" Properties=species:S:1:pos:R:3:forces:R:3 energy=-22.12961769104004 pbc="T T T"
Au       0.00000000       0.00000000       0.00000000      -0.00049972      -0.00022340       0.00121440
C        1.50579095      -1.50579095       3.30928373      -0.00040195      -0.00022348       0.00014472
C        2.70812607      -0.90463346       2.70812607       0.00090166       0.00044685      -0.00135912
3
Lattice="2.9733035564422607 -2.9733035564422607 2.9733035564422607 3.2677063941955566 3.2677063941955566 0.0 -3.2677063941955566 -0.0 3.2677063941955566" Properties=species:S:1:pos:R:3:forces:R:3 energy=-9.048564910888672 pbc="T T T"
Cs       2.08033705       1.18736911       2.08033705       0.00353532      -0.00035511      -0.00208647
Au       2.47774291      -2.47774291       2.47774291      -0.00158755      -0.00184881      -0.00065751
Au       1.38852870      -1.38852870       4.65623474      -0.00194778       0.00220393       0.00274399
3
Lattice="2.875474691390991 0.0 -0.0 0.0 2.875474691390991 -0.0 -1.4377373456954956 -1.4377373456954956 4.877103328704834" Properties=species:S:1:pos:R:3:forces:R:3 energy=-12.304360389709473 pbc="T T T"
Au       0.00000000       0.00000000       0.20144226      -0.00345513       0.00619874       0.00854999
Au       0.00000000       0.00000000       3.04996061       0.00638014      -0.00667808      -0.00735012
N        1.43773735       1.43773735       1.62570143      -0.00292502       0.00047934      -0.00119992
2
Lattice="3.381437301635742 0.0 0.0 0.0 3.381437301635742 0.0 0.0 0.0 3.381437301635742" Properties=species:S:1:pos:R:3:forces:R:3 energy=-12.56308650970459 pbc="T T T"
Zr       1.69071865       1.69071865       1.69071865       0.00098687       0.00093627       0.00162081
Au       0.00000000       0.00000000       0.00000000      -0.00098687      -0.00093629      -0.00162082
3
Lattice="4.1535749435424805 -0.0 -0.0 0.0 4.1535749435424805 -0.0 -2.0767874717712402 -2.0767874717712402 8.256366729736328" Properties=species:S:1:pos:R:3:forces:R:3 energy=-6.067062854766846 pbc="T T T"
Rb       0.00000000       0.00000000       6.33550882       0.00088604      -0.00045800      -0.00955852
Rb       2.07678747       2.07678747       1.92085838      -0.00056221       0.00127535       0.01078044
Au       0.00000000       0.00000000       0.00000000      -0.00032383      -0.00081734      -0.00122192
3
Lattice="-1.393672227859497 1.393672227859497 -1.9729127883911133 1.3936717510223389 -1.3936717510223389 -1.972913384437561 -4.256641864776611 -4.2566423416137695 1.9729130268096924" Properties=species:S:1:pos:R:3:forces:R:3 energy=-17.49517822265625 pbc="T T T"
Pt      -1.39051008      -1.39050972      -1.97291243      -0.00116637       0.00164627      -0.00115484
Pt      -0.02837133      -0.02837133       0.00000056      -0.00068616      -0.00230061       0.00060953
Au      -2.83776164      -2.83776164       0.00000056       0.00185253       0.00065434       0.00054533
3
Lattice="1.5254848003387451 -1.5254848003387451 1.5254848003387451 3.234405755996704 3.234405755996704 -0.0 -3.234405755996704 -0.0 3.234405755996704" Properties=species:S:1:pos:R:3:forces:R:3 energy=-15.867735862731934 pbc="T T T"
Ru       1.58662999       1.64777458       1.58662999       0.00088529      -0.00377877       0.00224451
Au       1.40874600       1.82565856       4.64315176      -0.00547420       0.00335349      -0.00431075
Au       0.05559302      -0.05559411       3.28999877       0.00458887       0.00042531       0.00206629
3
Lattice="2.6421823501586914 -0.0 -0.0 -0.0 2.6421823501586914 0.0 -1.3210911750793457 -1.3210911750793457 5.312702655792236" Properties=species:S:1:pos:R:3:forces:R:3 energy=-18.214805603027344 pbc="T T T"
Co       0.00000000       0.00000000       3.35394359      -0.00151535       0.00148351      -0.00386600
Co       1.32109118       1.32109118       1.95875919      -0.00072587      -0.00103993       0.00281359
Au       0.00000000       0.00000000       0.00000000       0.00224127      -0.00044359       0.00105246
2
Lattice="-1.772530436515808 1.772530436515808 -1.3497862815856934 1.772530436515808 -1.772530436515808 -1.3497862815856934 -3.427363634109497 -3.427363634109497 0.0" Properties=species:S:1:pos:R:3:forces:R:3 energy=-9.004591941833496 pbc="T T T"
Si       0.00000000       0.00000000       0.00000000      -0.00028042      -0.00076661       0.00091419
Au      -1.71368182      -1.71368182      -1.34978628       0.00028042       0.00076662      -0.00091417
3
Lattice="1.531383752822876 -1.531383752822876 1.531383752822876 3.3774871826171875 3.3774871826171875 -0.0 -3.3774871826171875 0.0 3.3774871826171875" Properties=species:S:1:pos:R:3:forces:R:3 energy=-23.881547927856445 pbc="T T T"
Ta      -0.02886252       0.02886252       3.34862375       0.01137282      -0.00950581       0.00690538
Ta       1.56024683       1.81724036       1.56024599      -0.00866075       0.00988545      -0.00959374
Au       0.00000027      -0.00000027      -0.00000053      -0.00271203      -0.00037965       0.00268838
3
Lattice="3.301894187927246 0.0 0.0 -0.0 3.301894187927246 -0.0 -1.650947093963623 -1.650947093963623 4.1093831062316895" Properties=species:S:1:pos:R:3:forces:R:3 energy=-7.62800931930542 pbc="T T T"
Zn       0.00000000       0.00000000       2.72165656      -0.00024456      -0.00028812       0.00154920
Zn       1.65094709       1.65094709       1.38772678      -0.00050681      -0.00049720      -0.00370737
Au       0.00000000       3.30189419       0.00000000       0.00075138       0.00078531       0.00215818
2
Lattice="-2.1971988677978516 2.1971988677978516 -1.4046990871429443 2.1971988677978516 -2.1971988677978516 -1.4046990871429443 -2.3776516914367676 -2.3776516914367676 -0.0" Properties=species:S:1:pos:R:3:forces:R:3 energy=-8.832830429077148 pbc="T T T"
B       -2.19719815       2.19719815      -1.40470004       0.01077196       0.00419680      -0.00374345
Au      -1.18882513      -1.18882644      -1.40470004      -0.01077197      -0.00419681       0.00374344
3
Lattice="1.8276270627975464 -1.8276270627975464 1.8276270627975464 3.351064920425415 3.351064920425415 -0.0 -3.351064920425415 0.0 3.351064920425415" Properties=species:S:1:pos:R:3:forces:R:3 energy=-14.943521499633789 pbc="T T T"
Pr       1.72623074       1.62483382       1.72623074       0.00159532      -0.00099891       0.00144067
Au       1.52302289      -1.52302325       1.52302289      -0.00081530       0.00196486      -0.00076608
Au       0.40600079      -0.40600115       3.75706577      -0.00078001      -0.00096595      -0.00067458
2
Lattice="-1.7543625831604004 1.7543625831604004 -2.4810192584991455 1.7543619871139526 -1.7543619871139526 -2.481019973754883 -2.4811928272247314 -2.4811928272247314 0.0" Properties=species:S:1:pos:R:3:forces:R:3 energy=-7.73717737197876 pbc="T T T"
Yb       0.00000000       0.00000000       0.00000000       0.00379157      -0.00018283       0.00006030
Au      -1.24059665      -1.24059606      -2.48101974      -0.00379158       0.00018283      -0.00006029
2
Lattice="3.1374423503875732 -0.0 -0.0 -0.0 3.1374423503875732 -0.0 -0.0 -0.0 3.1374423503875732" Properties=species:S:1:pos:R:3:forces:R:3 energy=-13.715265274047852 pbc="T T T"
Tc       1.56872118       1.56872118       1.56872118      -0.00139706       0.00034296       0.00076595
Au       0.00000000       0.00000000       0.00000000       0.00139707      -0.00034297      -0.00076592
2
Lattice="-1.7566617727279663 1.7566617727279663 -1.431277871131897 1.7566617727279663 -1.7566617727279663 -1.431277871131897 -5.230228900909424 -5.230228900909424 -0.0" Properties=species:S:1:pos:R:3:forces:R:3 energy=-2.789971351623535 pbc="T T T"
Ar      -5.23023033      -5.23023033      -2.86255431      -0.00653451      -0.00876235      -0.00110003
Au      -2.61511564      -2.61511564      -1.43127644       0.00653451       0.00876234       0.00110003
2
Lattice="-1.6788475513458252 1.6788475513458252 -2.374248504638672 1.678847074508667 -1.678847074508667 -2.374249219894409 -2.374248743057251 -2.374248743057251 -0.0" Properties=species:S:1:pos:R:3:forces:R:3 energy=-12.51469898223877 pbc="T T T"
Hf       0.00000000       0.00000000       0.00000000      -0.00000154       0.00063238       0.00064597
Au      -1.18712461      -1.18712413      -2.37424874       0.00000154      -0.00063238      -0.00064597
3
Lattice="-1.6439507007598877 1.6439507007598877 -1.3720180988311768 1.6439507007598877 -1.6439507007598877 -1.3720180988311768 -5.110567092895508 -5.110567092895508 1.3720180988311768" Properties=species:S:1:pos:R:3:forces:R:3 energy=-25.406330108642578 pbc="T T T"
Os      -1.61550128      -1.61550128      -1.37201881      -0.00647457      -0.02536941       0.00203594
Os      -0.08802080      -0.08802080      -0.00000082       0.00410609       0.02456464       0.00063972
Au      -3.40704465      -3.40704465      -0.00000082       0.00236849       0.00080483      -0.00267565
3
Lattice="2.8492462635040283 0.0 -0.0 0.0 2.8492462635040283 -0.0 -1.4246231317520142 -1.4246231317520142 5.046413898468018" Properties=species:S:1:pos:R:3:forces:R:3 energy=-12.579124450683594 pbc="T T T"
B        1.42462301       1.42462301       1.68213820      -0.00117461      -0.00191486       0.00163257
Au       0.00000000       0.00000000       0.28319293      -0.00069771       0.00099882      -0.00233695
Au       0.00000000       0.00000000       3.08108330       0.00187230       0.00091604       0.00070441
3
Lattice="2.8440322875976562 0.0 0.0 0.0 2.8440322875976562 0.0 -1.4220161437988281 -1.4220161437988281 6.079709529876709" Properties=species:S:1:pos:R:3:forces:R:3 energy=-12.579209327697754 pbc="T T T"
P        1.42201614       1.42201614       2.02657008      -0.00065684       0.00100502       0.00203647
Au       0.00000000       0.00000000       0.07374765      -0.00115742       0.00068208       0.00523801
Au       0.00000000       0.00000000       3.97939253       0.00181425      -0.00168711      -0.00727450
3
Lattice="2.8785207271575928 0.0 0.0 0.0 2.8785207271575928 0.0 -1.4392603635787964 -1.4392603635787964 4.9481916427612305" Properties=species:S:1:pos:R:3:forces:R:3 energy=-12.65851879119873 pbc="T T T"
Au       0.00000000       0.00000000       0.22815832      -0.00141994       0.00285214      -0.00886765
Au       0.00000000       0.00000000       3.07063556       0.00254806      -0.00169562       0.00357327
C        1.43926036       1.43926036       1.64939690      -0.00112813      -0.00115652       0.00529438
2
Lattice="-1.6950017213821411 1.6950017213821411 -2.397087335586548 1.6950021982192993 -1.6950021982192993 -2.3970866203308105 -2.461618661880493 -2.461618661880493 -0.0" Properties=species:S:1:pos:R:3:forces:R:3 energy=-6.957590579986572 pbc="T T T"
In       0.00000000       0.00000000       0.00000000       0.00170284      -0.00028549      -0.00101752
Au      -1.23080909      -1.23080957      -2.39708710      -0.00170284       0.00028549       0.00101753
2
Lattice="-1.344580054283142 1.344580054283142 -1.9001878499984741 1.3445805311203003 -1.3445805311203003 -1.9001872539520264 -2.897353410720825 -2.897353410720825 0.0" Properties=species:S:1:pos:R:3:forces:R:3 energy=-12.639156341552734 pbc="T T T"
V       -1.34458005       1.34458005      -1.90018737      -0.00073147       0.00085469       0.00072798
Au      -1.44867659      -1.44867694      -1.90018702       0.00073148      -0.00085471      -0.00072803
3
Lattice="1.5688140392303467 -1.5688140392303467 1.5688140392303467 3.133711576461792 3.133711576461792 -0.0 -3.133711576461792 -0.0 3.133711576461792" Properties=species:S:1:pos:R:3:forces:R:3 energy=-12.794565200805664 pbc="T T T"
Pd      -0.01726455       0.01726455       3.11644697       0.02023589      -0.01848007       0.02192281
Pd       1.58607864       1.54763293       1.58607864      -0.02200730       0.01973803      -0.02013362
Au      -3.13371158       0.00000000       3.13371158       0.00177141      -0.00125798      -0.00178917
2
Lattice="-1.4111264944076538 1.4111264944076538 -1.9956332445144653 1.411126971244812 -1.411126971244812 -1.9956326484680176 -2.577075242996216 -2.577075242996216 0.0" Properties=species:S:1:pos:R:3:forces:R:3 energy=-6.841270923614502 pbc="T T T"
Li      -3.98820114      -1.16594803      -1.99563265      -0.00174838      -0.00139546       0.00046679
Au      -1.28853667      -1.28853714      -1.99563229       0.00174838       0.00139546      -0.00046678
3
Lattice="3.4209961891174316 -0.0 -0.0 -0.0 3.4209961891174316 -0.0 -1.7104980945587158 -1.7104980945587158 4.161006450653076" Properties=species:S:1:pos:R:3:forces:R:3 energy=-5.841564655303955 pbc="T T T"
Au       0.00000000       0.00000000      -0.04193952       0.00593353       0.00931680      -0.03575235
Au       0.00000000       0.00000000       2.81594491      -0.00080802      -0.00609071       0.05374542
He       1.71049809       1.71049809       1.38700271      -0.00512551      -0.00322610      -0.01799311
3
Lattice="-1.7482670545578003 1.7482670545578003 -2.4713754653930664 1.7482664585113525 -1.7482664585113525 -2.471376419067383 -2.8469045162200928 -2.846904993057251 2.4713759422302246" Properties=species:S:1:pos:R:3:forces:R:3 energy=-13.247598648071289 pbc="T T T"
Si       0.00000000       0.00000000       0.00000000       0.00068597      -0.00141732       0.00088070
Au      -1.89439082      -1.89439082       0.00000000       0.00190659       0.00545909       0.00044355
Au      -0.95251423      -0.95251369      -2.47137594      -0.00259255      -0.00404176      -0.00132426
2
Lattice="-2.0778353214263916 2.0778353214263916 -1.6894526481628418 2.0778353214263916 -2.0778353214263916 -1.6894526481628418 -4.62153959274292 -4.62153959274292 -0.0" Properties=species:S:1:pos:R:3:forces:R:3 energy=-1.4727736711502075 pbc="T T T"
Au      -2.31077003      -2.31077003      -1.68945158      -0.00096618      -0.00016198       0.00212310
Xe      -0.00000032      -0.00000032       0.00000100       0.00096619       0.00016199      -0.00212324
3
Lattice="3.717160701751709 -0.0 0.0 -0.0 3.717160701751709 0.0 -1.8585803508758545 -1.8585803508758545 4.596629619598389" Properties=species:S:1:pos:R:3:forces:R:3 energy=-14.749133110046387 pbc="T T T"
Pr       1.85858035       1.85858035       1.53221011       0.00053528       0.00157726       0.00160120
Au       0.00000000       0.00000000      -0.02363124      -0.00073277      -0.00250938      -0.00124622
Au       0.00000000       0.00000000       3.08805156       0.00019750       0.00093212      -0.00035497
3
Lattice="3.407357931137085 -0.0 -0.0 -0.0 3.407357931137085 -0.0 -1.7036789655685425 -1.7036789655685425 6.521719455718994" Properties=species:S:1:pos:R:3:forces:R:3 energy=-11.85529613494873 pbc="T T T"
Pb       0.00000000       0.00000000       0.30071837       0.00090384      -0.00130575      -0.00282548
Pb       0.00000000       0.00000000       4.04709435       0.00016407       0.00060229       0.00359473
Au       1.70367897       1.70367897       2.17390633      -0.00106792       0.00070347      -0.00076923
3
Lattice="3.772141456604004 0.0 0.0 -0.0 3.772141456604004 0.0 -1.886070728302002 -1.886070728302002 5.932723045349121" Properties=species:S:1:pos:R:3:forces:R:3 energy=-8.930922508239746 pbc="T T T"
Rb       1.88607073       1.88607073       1.97757423      -0.00032207      -0.00046621      -0.00038702
Au       1.88607073       1.88607073       5.12471437      -0.00092242      -0.00095865       0.00382800
Au       0.00000000       0.00000000       4.76315689       0.00124449       0.00142484      -0.00344096
3
Lattice="-1.5179083347320557 1.5179083347320557 -1.634319543838501 1.5179083347320557 -1.5179083347320557 -1.634319543838501 -4.77688455581665 -4.77688455581665 1.634319543838501" Properties=species:S:1:pos:R:3:forces:R:3 energy=-26.248289108276367 pbc="T T T"
Mo      -1.55025733      -1.55025733      -1.63432062      -0.00574646      -0.00600231      -0.00514884
Mo      -0.04203930      -0.04203930      -0.00000109       0.00553216       0.00750054       0.00316116
Au      -3.18459058      -3.18459058      -0.00000109       0.00021429      -0.00149825       0.00198764
3
Lattice="1.914595603942871 -1.914595603942871 1.914595603942871 3.2935004234313965 3.2935004234313965 -0.0 -3.2935004234313965 -0.0 3.2935004234313965" Properties=species:S:1:pos:R:3:forces:R:3 energy=-14.97446346282959 pbc="T T T"
Y        1.73603225       1.55746818       1.73603225      -0.00159097       0.00168481      -0.00228788
Au       1.59549642      -1.59549642       1.59549642      -0.00058723      -0.00035009       0.00221618
Au       0.49766311      -0.49766311       3.79116344       0.00217822      -0.00133470       0.00007169
3
Lattice="-1.8131318092346191 1.8131318092346191 -2.558842897415161 1.813131332397461 -1.813131332397461 -2.5588436126708984 -3.014369010925293 -3.014369487762451 2.5588431358337402" Properties=species:S:1:pos:R:3:forces:R:3 energy=-11.119953155517578 pbc="T T T"
In      -1.20123732      -4.82750034      -0.00000040       0.00082832      -0.00183891      -0.00130665
Au      -2.00599527      -2.00599527       0.00000000       0.00116689       0.00128346      -0.00001501
Au      -1.00837350      -1.00837290      -2.55884314      -0.00199519       0.00055546       0.00132166
3
Lattice="3.0728228092193604 -0.0 0.0 -0.0 3.0728228092193604 0.0 -1.5364114046096802 -1.5364114046096802 5.750572681427002" Properties=species:S:1:pos:R:3:forces:R:3 energy=-9.025230407714844 pbc="T T T"
Au       1.53641140       1.53641140       5.68504095      -0.00037587       0.00109304       0.01139662
Au       0.00000000       0.00000000       3.89924693       0.00116496      -0.00084856      -0.01121676
Cl       1.53641140       1.53641140       1.91685748      -0.00078914      -0.00024447      -0.00017987
3
Lattice="3.4955973625183105 -0.0 -0.0 -0.0 3.4955973625183105 -0.0 -1.7477986812591553 -1.7477986812591553 4.026468276977539" Properties=species:S:1:pos:R:3:forces:R:3 energy=-13.248358726501465 pbc="T T T"
Si       1.74779868       1.74779868       1.34215617      -0.00192612      -0.00043405      -0.00027225
Au       1.74779868       1.74779868       4.02156878       0.00121040       0.00005316      -0.00091425
Au       0.00000000       0.00000000       2.68921185       0.00071571       0.00038088       0.00118650
3
Lattice="3.669240713119507 -0.0 -0.0 0.0 3.669240713119507 -0.0 -1.8346203565597534 -1.8346203565597534 4.528340816497803" Properties=species:S:1:pos:R:3:forces:R:3 energy=-12.779104232788086 pbc="T T T"
Dy       1.83462036       1.83462036       1.50944662       0.00009736       0.00137430      -0.00008555
Au       0.00000000       0.00000000      -0.01350841      -0.00000625      -0.00306083      -0.00593635
Au       0.00000000       0.00000000       3.03240156      -0.00009111       0.00168653       0.00602189
2
Lattice="3.882824182510376 0.0 0.0 0.0 3.882824182510376 0.0 0.0 0.0 3.882824182510376" Properties=species:S:1:pos:R:3:forces:R:3 energy=-1.057607650756836 pbc="T T T"
Au       0.00000000       0.00000000       0.00000000       0.00267703      -0.00056586       0.00072075
Xe       1.94141209       1.94141209       1.94141209      -0.00267704       0.00056583      -0.00072075
3
Lattice="1.8016934394836426 -1.8016934394836426 1.8016934394836426 3.354877233505249 3.354877233505249 -0.0 -3.354877233505249 0.0 3.354877233505249" Properties=species:S:1:pos:R:3:forces:R:3 energy=-14.735886573791504 pbc="T T T"
Nd       1.71885705       1.63602006       1.71885705      -0.00057891      -0.00162420       0.00126663
Au       1.50141168      -1.50141168       1.50141168       0.00029747       0.00230886      -0.00060140
Au       0.38311866      -0.38311866       3.73799586       0.00028143      -0.00068467      -0.00066524
3
Lattice="3.2465453147888184 -3.2465453147888184 3.2465453147888184 2.5355684757232666 2.5355684757232666 0.0 -2.5355684757232666 0.0 2.5355684757232666" Properties=species:S:1:pos:R:3:forces:R:3 energy=-13.946608543395996 pbc="T T T"
Sm       1.14728463      -1.14728463       3.68285322       0.00008448       0.00032018       0.00042444
Sm       2.09926081       0.43630773       2.09926081       0.00075051      -0.00121887      -0.00059262
Au       0.00000000       0.00000000       0.00000000      -0.00083499       0.00089867       0.00016818
3
Lattice="-1.9878830909729004 1.9878830909729004 -2.8108935356140137 1.987882375717163 -1.987882375717163 -2.810894250869751 -5.453845977783203 -5.4538469314575195 2.810894012451172" Properties=species:S:1:pos:R:3:forces:R:3 energy=-6.34184455871582 pbc="T T T"
K       -2.32306027      -2.32305956      -2.81089306      -0.00913981      -0.00631489       0.00074138
K       -4.94873857      -4.94873762      -2.81089306       0.00807351       0.00864116       0.00093199
Au      -3.63589907      -3.63589907       0.00000080       0.00106629      -0.00232627      -0.00167338
2
Lattice="3.0468688011169434 -0.0 0.0 -0.0 3.0468688011169434 -0.0 0.0 -0.0 3.0468688011169434" Properties=species:S:1:pos:R:3:forces:R:3 energy=-8.437692642211914 pbc="T T T"
Cu       1.52343440       1.52343440       1.52343440      -0.00097220       0.00097390      -0.00032139
Au       0.00000000       0.00000000       0.00000000       0.00097219      -0.00097391       0.00032140
2
Lattice="3.579087018966675 -0.0 0.0 -0.0 3.579087018966675 0.0 0.0 0.0 3.579087018966675" Properties=species:S:1:pos:R:3:forces:R:3 energy=-7.799649238586426 pbc="T T T"
Pb       0.00000000       0.00000000       0.00000000      -0.00067249      -0.00180984      -0.00034614
Au       1.78954351       1.78954351       1.78954351       0.00067246       0.00180984       0.00034614
3
Lattice="2.7419140338897705 0.0 0.0 -0.0 2.7419140338897705 -0.0 -1.3709570169448853 -1.3709570169448853 5.009192943572998" Properties=species:S:1:pos:R:3:forces:R:3 energy=-15.805994033813477 pbc="T T T"
Ni       0.00000000       0.00000000       3.20104098       0.00092969       0.00109759      -0.00206579
Ni       1.37095702       1.37095702       1.80815196      -0.00126414       0.00030401       0.00150767
Au       0.00000000       0.00000000       0.00000000       0.00033446      -0.00140163       0.00055816
2
Lattice="3.158855676651001 -0.0 0.0 0.0 3.158855676651001 -0.0 0.0 -0.0 3.158855676651001" Properties=species:S:1:pos:R:3:forces:R:3 energy=-8.45503044128418 pbc="T T T"
Pd       1.57942784       1.57942784       1.57942784      -0.00025261      -0.00208229      -0.00066041
Au       0.00000000       0.00000000       0.00000000       0.00025260       0.00208228       0.00066042
3
Lattice="1.629064679145813 -1.629064679145813 1.629064679145813 3.6234798431396484 3.6234798431396484 -0.0 -3.6234798431396484 -0.0 3.6234798431396484" Properties=species:S:1:pos:R:3:forces:R:3 energy=-9.009255409240723 pbc="T T T"
K        1.75084877       1.87263227       1.75084877       0.00253404       0.00108902      -0.00121632
Au       1.35755444      -1.35755336       1.35755444      -0.00156775      -0.00088091      -0.00063540
Au       0.14972784      -0.14972670       3.77320766      -0.00096627      -0.00020812       0.00185173
3
Lattice="2.683689832687378 -2.683689832687378 2.683689832687378 2.2961530685424805 2.2961530685424805 0.0 -2.2961530685424805 -0.0 2.2961530685424805" Properties=species:S:1:pos:R:3:forces:R:3 energy=-13.280158996582031 pbc="T T T"
B        1.65994799       0.63620514       1.65994799       0.00180599      -0.00139867      -0.00103540
Au       0.16265063      -0.16265063       0.16265063      -0.00540379      -0.00254961      -0.00008002