9
Properties=species:S:1:pos:R:3:forces[energy/ft]:R:3 energy/ft=-97080.0390625 pbc="F F F"
H        0.16712676      -1.19985032       0.84958249     -34.82896423       4.96852112      -8.54056358
H       -0.93496192      -0.92263609      -0.68150204      17.84079170     -17.85233498      -2.40140867
H       -1.75179350       0.29946017       1.28426456       0.94846511       5.98354006       2.19156861
H       -0.20725261       1.35456109       1.05486238     -20.64279175       0.65967178       1.42306924
H       -1.47331512       1.17441297      -0.27787521      -2.82535601       9.65400982       2.87609911
H        1.05895495      -0.40161255      -1.43156576       3.45053220       0.19904411     -19.77697563
C       -0.17406277      -0.48797864       0.01855790     -16.05833626     -27.36904335      40.90397263
C       -0.98570275       0.68695664       0.58412528      36.46515274      -0.03215122      -0.25372386
O        1.06846392      -0.16863939      -0.50269055      15.65050888      23.78874588     -16.42203522
9
Properties=species:S:1:pos:R:3:forces[energy/ft]:R:3 energy/ft=-97070.96875 pbc="F F F"
H        1.18129134       0.88525915      -0.17645317     -27.21807671     -15.69170475       0.06881475
H        0.17896233       0.92701423       1.19442391     -12.05380058     -10.41809273      -0.37571430
H       -0.96660519       1.58609307      -1.40722394       9.82939720       7.67926311      12.33207703
H       -1.02901304      -0.11620693      -1.33654571      -9.13970947     -40.47310638     -37.92221451
H       -1.95838618       0.69792765      -0.11042000      17.13274384       7.58675146     -14.08754826
H        0.22355606      -1.66335166       0.81210607     -32.38633728      -3.78321457      12.73365688
C        0.22927937       0.34043264       0.22884318      40.46192932      72.46681213       3.47402859
C       -0.98169100       0.72626406      -0.70885265     -11.21500397     -16.15575409      51.21688843
O        0.71408975      -0.94681150       0.42485929      24.58885956      -1.21094704     -27.43999481
9
Properties=species:S:1:pos:R:3:forces[energy/ft]:R:3 energy/ft=-97075.0234375 pbc="F F F"
H       -0.16287301      -0.64302266      -1.31618953       0.03001976      -5.27653360      -8.36763763
H        1.27993143       0.23446093      -0.84324062       6.63071203       9.84734631       1.27785587
H       -0.15128420       1.86927974       0.33956012      11.31292343      22.42266083       8.95808411
H       -0.73139244       1.33792961      -1.27271819     -26.18114090      30.46622276      -6.65668583
H       -1.58192611       0.89916372       0.35305250      -8.34336090     -12.62484932      -8.77257824
H        0.47292662      -1.91071820       0.44558433      -5.90938759      72.24982452       4.29616833
C        0.28678676      -0.08054401      -0.47353047     -32.47551727     -18.50226593       2.67830658
C       -0.66671067       1.10165906      -0.21085352      38.04743958     -18.25712967     -18.63014793
O        0.34024510      -0.87922674       0.65828067      16.88831329     -80.32527161      25.21662903
9
Properties=species:S:1:pos:R:3:forces[energy/ft]:R:3 energy/ft=-97084.2890625 pbc="F F F"
H        0.73682141       0.60933280       1.20367754       7.95183468      -8.78620911      -2.49927521
H        0.20738342      -1.18308222       1.05047297       1.36623943      34.50095367     -16.22070312
H       -1.69259262       0.49096048       1.31016600       0.36815548      -2.57767081     -11.38502121
H       -1.30606592       1.32318795      -0.23431621       9.56408596      14.47986698      -4.33240700
H       -1.70920885      -0.40667254      -0.34700012       5.74871826      19.30013657      19.39294052
H        1.35608721       0.56051379      -0.94232261     -10.37987328     -15.21052647       4.69059277
C        0.23183474      -0.12985821       0.52582657      -1.28954744      -7.96475077      -3.83035326
C       -1.18366456       0.38676775       0.31135696     -26.53890610     -45.22958374       2.92035913
O        0.86614728      -0.28079090      -0.75703090      13.20929813      11.48778152      11.26387215
9
Properties=species:S:1:pos:R:3:forces[energy/ft]:R:3 energy/ft=-97070.640625 pbc="F F F"
H       -0.87935394      -0.15919401      -1.21730030      29.33996391       5.00748205      10.24369717
H       -0.10909584       1.41295636      -0.83407068       5.10913944     -36.50934601      27.62299728
H       -0.93711597       1.02779722       1.56785154     -13.06422138     -21.33709145     -14.81551456
H       -2.14823914      -0.25472394       0.62550139      42.10529327      40.01485062       5.61671925
H       -0.83256197      -0.75066757       1.49935627      30.89716339     -15.19913387       5.04731464
H        1.10102761      -1.19816208      -0.86612535      -6.33453274      28.45823669      14.07758999
C       -0.16215552       0.30163890      -0.42246819     -35.29025269     -11.49882698     -30.64363670
C       -1.01965809       0.11629742       0.87294358     -45.14426041      19.88119507      -4.51605892
O        1.12685263      -0.31875229      -0.38700783      -7.61829090      -8.81737518     -12.63309860
9
Properties=species:S:1:pos:R:3:forces[energy/ft]:R:3 energy/ft=-97075.1484375 pbc="F F F"
H        0.46401241       0.79285848      -1.38125646      -2.69535685     -31.61268234      34.74690247
H        0.20788686       1.53876960       0.19087164       1.25599039     -33.98863983      -1.86644793
H       -1.77791131       0.57126886      -1.11048698       5.31007528     -17.09232903      38.93795013
H       -1.43207002      -1.09946346      -0.58902216       7.18286419      25.49542618      23.99403954
H       -1.94568193       0.23901528       0.70762861      20.87768173     -10.34843636     -12.05299091
H        1.07884097      -1.25289726       0.08899116      -4.11447048     -29.55485725     -20.10785103
C        0.16051447       0.47118190      -0.27603519      12.89453316      20.16091347      16.33007240
C       -1.29449856      -0.01470279      -0.19208422     -30.40490723      12.56509876     -74.00976562
O        1.06572139      -0.39251262       0.48328918     -10.30640411      64.37550354      -5.97190666
9
Properties=species:S:1:pos:R:3:forces[energy/ft]:R:3 energy/ft=-97077.7421875 pbc="F F F"
H        0.25646645      -0.70603085       1.24814153      25.71522522     -10.08522892      26.85139465
H       -0.74156523      -1.30415916       0.04132189       1.44443893     -14.67567253     -20.00976372
H       -1.84240460       0.32768947       1.12246835      29.38719368      15.24374008       7.80811119
H       -0.47651708       1.63510585       0.74587178       0.86040330       2.38451147      13.94720459
H       -1.64336371       0.94310844      -0.38378704      14.67098618       1.35355544     -12.71619034
H        0.96245444       0.67635882      -0.73651159      13.23494244      27.79722214     -12.90417004
C       -0.07542610      -0.45712149       0.25290406       7.82659817     -17.39640045      -4.69144154
C       -0.96684676       0.68763745       0.47179201     -70.97950745      16.77282715     -11.51874161
O        1.00191438      -0.27218050      -0.67238706     -22.16028595     -21.39455223      13.23359680
9
Properties=species:S:1:pos:R:3:forces[energy/ft]:R:3 energy/ft=-97077.578125 pbc="F F F"
H       -1.16740370      -0.04642054      -1.04643285      -8.88030910       1.13109541      18.31060791
H       -0.41837057       1.37343276      -0.37195045       6.49136543      46.40859985      -6.92691994
H       -1.21933401       0.63701469       1.72605324     -16.37244606       4.56741476       3.03838658
H       -0.76561308      -1.04364443       1.48839176       9.24428177     -16.99945259       2.71430254
H        0.40770981       0.37763062       1.55269790      59.46301270       3.58975840      32.33614349
H        1.52310145      -0.22711024      -0.23440266     -16.19089127       2.88142753      -9.99477768
C       -0.40725085       0.31780532      -0.30939537      17.78376389     -71.03981018       7.83108807
C       -0.49867448      -0.02438477       1.23740935     -53.14330673      17.69637871     -64.08495331
O        0.78332508      -0.28782979      -0.89285743       1.60452843      11.76458836      16.77612686
9
Properties=species:S:1:pos:R:3:forces[energy/ft]:R:3 energy/ft=-97068.09375 pbc="F F F"
H       -1.08428407      -0.69356513      -0.54554743     -37.58895874     -29.07298660     -12.14659119
H       -0.78964877       1.07738078      -0.63811547       3.35807753     -28.93488312       3.04080176
H       -1.42217708       0.37218922       1.59026265     -37.27193451      19.71302605      -8.15143394
H       -0.31052443      -0.61642474       1.86346364      21.15550995     -32.40948105      -4.12896824
H        0.14669883       0.96785182       1.68382132      17.59775543      23.15763855      -6.11005688
H        1.53006959       0.12554468      -0.63059956      53.13542938      39.11641312      31.61091614
C       -0.39506549       0.04273486      -0.23225658      -7.72986841      75.52016449     -68.00195312
C       -0.44644767       0.21672186       1.17279291       9.49444771     -12.49141979      98.61545563
O        0.75323790      -0.27254370      -0.91542000     -22.15045547     -54.59847260     -34.72817230
9
Properties=species:S:1:pos:R:3:forces[energy/ft]:R:3 energy/ft=-97068.1875 pbc="F F F"
H        0.26198381       1.46392727      -0.13934629     -11.17178726      51.68268585     -10.78798389
H        1.01269734       0.46978894       1.13741493      -2.08266711      -1.01758599      -7.82526684
H       -1.73269761       0.88549674       1.13283801      16.92361641     -54.13469315     -25.37759972
H       -1.63732576      -0.53755265      -0.24255852       4.42070341      11.18394947      21.02980423
H       -1.20171094      -0.82079589       1.52365041      10.65571022     -15.00712967       8.32062912
H        0.26375070       0.03176322      -1.59627581      29.78089905     -25.56590271      24.56010818
C        0.29654172       0.50469100       0.28007993     -13.24706268    -115.67521667      -2.45571518
C       -1.14907515      -0.11796465       0.69799167      -1.26319504      98.32299805     -11.19049454
O        0.83102578      -0.38444224      -0.84862334     -34.01622009      50.21089554       3.72652054
9
Properties=species:S:1:pos:R:3:forces[energy/ft]:R:3 energy/ft=-97078.5234375 pbc="F F F"
H        1.18544424       0.47993553      -0.77193564      25.59897232       9.26585674     -34.51202011
H        0.21616322       1.49827003       0.28010052      -0.53944540       9.70970345       7.59429026
H       -1.54437828       0.79530865      -1.46921134      11.25824928      -1.58234978      -5.88364601
H       -0.93680513      -0.97794425      -1.18058586      14.41823483      14.88138008     -22.29190636
H       -1.69286156      -0.21725281       0.02235908      13.44946098      26.46628952     -15.10020924
H        0.85485768      -0.10103213       1.66994977       2.00135183       3.09410191       2.34970760
C        0.31831759       0.49814430      -0.15661292     -13.98167419     -29.97373772      27.66165161
C       -0.96531028       0.09022651      -0.83965904     -43.62123871     -42.54971313      44.30349731
O        0.60643798      -0.53484958       0.83920366      -8.58391571      10.68846989      -4.12136459
9
Properties=species:S:1:pos:R:3:forces[energy/ft]:R:3 energy/ft=-97069.875 pbc="F F F"
H        0.58942014       0.56850415       1.45765340      -0.53053284      33.12513351      -7.58248091
H        0.19084583      -0.97177398       1.11895347     -17.89299202       3.63747978      -9.00043011
H       -1.91754603      -0.63864160       0.32633665     -11.10192013      16.96520233      -2.09381056
H       -1.74687612       1.20677948       0.04724915     -21.29485893      31.17698860      10.04915237
H       -0.99806798       0.04567495      -1.06048417     -21.30729294       1.12030053      -7.39871311
H        1.44465923       0.56652415      -0.77008480      11.91742706      25.06527710     -10.31805134
C        0.14530499       0.03149213       0.59344125      -5.96711540     -56.77434540      -3.29277515
C       -1.32273293       0.23833993      -0.01808530      64.49256897     -48.85585785       8.66062069
O        1.03739238      -0.25161076      -0.50245267       1.68472195      -5.46017170      20.97648811
9
Properties=species:S:1:pos:R:3:forces[energy/ft]:R:3 energy/ft=-97076.3515625 pbc="F F F"
H       -1.43890595      -0.04261626       0.04499329      -2.58901167     -16.45632172     -10.58075142
H       -0.27171803      -0.73808193      -1.24139941     -13.15035629      16.85300446      -9.77829361
H       -0.74988008       1.96914649      -0.40386763      -6.77718353      10.28148460      -7.23851109
H        0.84527570       1.63080645       0.40630284     -32.31079865     -19.64773560     -10.94379711
H        0.72931486       1.31501126      -1.24821329       9.42013168      13.91665363     -32.26061249
H       -0.25795770      -1.04518569       1.39416111      10.83698750      -0.83454370      -0.10529804
C       -0.37672150      -0.16038448      -0.29537192     -26.20470810     -21.42219162       9.14314270
C        0.07656428       1.25944448      -0.39901713      55.40200806      20.70211220      32.65169907
O        0.29732707      -1.01976323       0.58729970       5.37293291      -3.39246035      29.11242104
9
Properties=species:S:1:pos:R:3:forces[energy/ft]:R:3 energy/ft=-97078.8359375 pbc="F F F"
H       -0.48917454      -1.31430459      -0.63255769      -8.05420113     -23.28780746      -7.91463423
H       -0.79148257       0.47502047      -1.23857665      16.05123520     -45.84309769      18.53208542
H       -1.98997390       0.15442517       1.07170773      -3.71848297      -4.77274895     -17.71519852
H       -0.46969858      -0.22659287       1.73313308      12.84987354      -9.76007366      14.20328236
H       -0.69232571       1.32907271       0.98433238       2.97808218       6.17285442      -5.03873634
H        1.41693759       0.47579589       0.31310838     -16.29873657      -8.06115246      -8.85979366
C       -0.27858835      -0.28003755      -0.43222728     -41.75839615      93.57775879     -12.39944267
C       -0.90491611       0.25323355       0.85648638      -5.80674839      -4.27284336      19.14559937
O        1.07837689      -0.03625684      -0.45904917      43.75737000      -3.75289869       0.04683685
9
Properties=species:S:1:pos:R:3:forces[energy/ft]:R:3 energy/ft=-97079.0390625 pbc="F F F"
H       -0.57660764      -1.28615212      -0.67026657       3.79847193      21.15743828      -0.64919782
H       -0.75700259       0.52706623      -1.19368887      13.25893974     -26.46501923      13.14698219
H       -2.05342436       0.33616307       0.81875616      16.43082809      -9.12728882      -8.28136349
H       -0.80510265      -0.44272026       1.68974471      22.08385849     -38.58576584      53.36618423
H       -0.61162323       1.22955155       1.03502202      12.25462341      12.02666855      17.71265793
H        1.21938944       0.41082615      -1.21379507      23.70157242      14.03903961     -24.59018326
C       -0.29376757      -0.20132971      -0.40779039     -14.72963333     -11.36149788     -27.50355721
C       -0.92128670       0.19647111       0.88363361     -52.43215561      47.41542816     -39.16868973
O        1.13788557      -0.04525437      -0.38655707     -24.36650085      -9.09899902      15.96716881
9
Properties=species:S:1:pos:R:3:forces[energy/ft]:R:3 energy/ft=-97076.703125 pbc="F F F"
H       -1.45666134       0.27539563      -0.23977017     -33.05673218      -0.04288244      -0.22165346
H       -0.18851714      -0.13814463      -1.42816246      -5.17585993       6.77321243     -17.33897400
H        1.37903249       0.85525727      -0.02389291      57.58058929       2.39082384      -8.04538536
H        0.14404508       2.16390276      -0.55387473      17.63648605     -32.29357910      10.82464600
H        0.29274240       1.62288308       1.07114100     -10.23369408      -4.92218161      29.93133736
H        0.31242073      -1.01058650       1.09121060      12.38643456       9.51023293      40.08850098
C       -0.40961096       0.09678593      -0.38593292       4.99201679     -74.81774902      19.45375443
C        0.39610326       1.21004820       0.07991633     -19.78180504      69.01951599     -27.56499290
O       -0.02035437      -1.21855426       0.23497656     -24.34743309      24.38260269     -47.12723541
9
Properties=species:S:1:pos:R:3:forces[energy/ft]:R:3 energy/ft=-97073.46875 pbc="F F F"
H       -1.40103173      -0.13505770      -0.41215083     -70.07287598      -9.91106701      18.69851494
H       -0.27410343      -0.61390245      -1.43780744      33.48836517     -24.21810532     -42.85371780
H       -0.38000351       1.89837229      -1.01944435      -1.97894907      -9.83743191      11.52511787
H        0.02660654       1.71996737       0.73190868       1.92486048     -23.03474808     -14.68161869
H        1.11514616       1.17495286      -0.68345934      31.64566422       9.67235947       9.62219810
H        0.25925905      -1.81175506       0.55349338      -2.15012074     -18.44714546      -3.10600758
C       -0.36176115      -0.23418257      -0.45732576      20.56521606      44.74259186      82.17236328
C        0.11360337       1.19645298      -0.27366450      -9.56674290      33.64611053     -42.44380188
O        0.22743806      -0.86311722       0.69159895      -3.85541582      -2.61256599     -18.93305206
9
Properties=species:S:1:pos:R:3:forces[energy/ft]:R:3 energy/ft=-97067.6640625 pbc="F F F"
H        0.12549745      -0.81275684       1.31667602       5.03597450      -3.78990555      -1.28133440
H       -0.43211240      -1.28015578      -0.37668005     -13.17612934     -14.00160027      14.37419510
H       -1.95687532      -0.12698744       0.68508166       6.23876333      38.43666077       1.66923857
H       -1.00999308       1.56854260       0.69893193       4.43682146     -22.21306610       1.28404188
H       -1.39264739       0.59538698      -0.77898324      -7.38451385      18.24472046     -21.45725632
H        1.89682686      -0.56092387      -0.39668989     -12.78469849      -9.63428211      12.41480255
C       -0.11985849      -0.45706087       0.29021525     130.40530396     -53.70848846     -27.73112488
C       -1.10381448       0.53410500       0.26175055     -95.91230774      25.26953506       7.89074326
O        1.09300745      -0.01906781      -0.48670262     -16.85919571      21.39643097      12.83669281
9
Properties=species:S:1:pos:R:3:forces[energy/ft]:R:3 energy/ft=-97075.921875 pbc="F F F"
H       -0.55100876       0.46864763       1.32674229      12.42325020       2.37226081      18.72117043
H       -1.48063993      -0.09782450       0.03319797      -2.04316235     -12.42062378       2.09086275
H        1.00153518       0.78096861      -0.87854838      54.67321777     -10.90487480     -31.41204453
H       -0.58962625       1.22183335      -1.59806418      10.36896992      -0.29430956      13.30704403
H        0.26847246       2.13686275      -0.26591361     -12.04780102      12.19308472       7.48212624
H        0.52794570      -1.48228931      -0.44396493       4.72078323     -15.88209915     -60.57119751
C       -0.40748036       0.06664690       0.32158297     -56.28331375      13.74464417     -19.74552536
C        0.04143735       1.14246356      -0.66572517     -17.68224907       2.75028992      -2.26408672
O        0.32659316      -1.09854233       0.37341666       5.87030268       8.44162560      72.39164734
9
Properties=species:S:1:pos:R:3:forces[energy/ft]:R:3 energy/ft=-97075.0078125 pbc="F F F"
H       -1.29843020       0.09349653      -0.88897395      23.60119247       0.89659834       5.56870747
H       -0.20631646       1.42827153      -0.37998226      -6.71812773       7.11177731       7.80048704
H       -1.28088272       0.61956853       1.67600596     -49.01567078      27.10657120      26.92574310
H       -0.67936277      -1.18203092       1.55888116      -8.76591682      41.63827515     -16.57701492
H        0.42137581       0.27026337       1.64237225     -10.73273468      -6.29588795      11.93836212
H        1.50165856      -0.25831732      -0.31734824      40.42943573       3.20844626      38.71601486
C       -0.35239583       0.33550456      -0.29272151      -7.20585442     -32.05722809       4.46013355
C       -0.59609610      -0.05046819       1.27183282      95.22093964     -42.10915375     -60.46319580
O        0.80910885      -0.27525795      -0.94234145     -76.81326294       0.50060010     -18.36923599
9
Properties=species:S:1:pos:R:3:forces[energy/ft]:R:3 energy/ft=-97073.765625 pbc="F F F"
H       -0.75846219      -0.56169814      -1.22063255     -12.46011734      -1.53762054      26.75724792
H       -0.30803147       1.06693804      -1.12660706       6.31053543      -3.28114223      21.48900795
H       -2.03356838       0.50760913       0.84039348     -15.30806732       9.96647644      -4.24638510
H       -0.88343853      -0.55045128       1.44501543       8.42763138     -81.35522461      44.44662476
H       -0.50618756       1.05407560       1.55373943      19.31320953      36.40158081      16.05973434
H        1.78728974       0.22241502      -0.66641653     -16.51146126      -2.59663963       5.11500835
C       -0.29512057       0.13737315      -0.46254405      42.61153030      -2.41301942     -28.27748108
C       -0.96674252       0.32626507       0.94126081       1.86003733      19.57682037     -88.17608643
O        1.11746168      -0.45769385      -0.41137609     -34.24329758      25.23876953       6.83233547
9
Properties=species:S:1:pos:R:3:forces[energy/ft]:R:3 energy/ft=-97071.8046875 pbc="F F F"
H       -0.16238759      -0.29204977      -1.54135478     -16.13599014      -6.99112892      25.94762802
H        0.01395808       1.27701700      -0.97584826     -19.12426758       1.01255417      24.02531052
H       -1.13453579       0.40057608       1.57855725      25.43416405      -0.05768394     -17.65727806
H       -2.24132657       0.38641247       0.39500764       2.55889320     -11.74890709     -21.93027306
H       -1.37281930      -1.13865924       0.88505614       5.64745331      -3.52771187     -20.24337196
H        1.64828968       0.41912824       0.62695152     -31.02643967     -15.79105186     -27.74542809
C       -0.12391654       0.24248832      -0.53370512      45.34848404     -14.40966034       8.39951801
C       -1.23675740      -0.08723224       0.55098224      -4.80903721      34.99928284      15.35037231
O        1.22606266      -0.18294607      -0.07397582      -7.89326096      16.51431084      13.85352325
9
Properties=species:S:1:pos:R:3:forces[energy/ft]:R:3 energy/ft=-97072.1484375 pbc="F F F"
H        1.18522012       0.75022686      -0.56905675       8.84900379     -23.21812820      22.53730202
H        0.36007804       0.98931378       0.97492576      -3.54095173      28.92063904      10.96747780
H       -1.60870159      -0.21907967      -0.95537585      30.78778076      25.96822166      14.48419189
H       -1.40063167       1.47192204      -0.35662329      -6.31181812      13.09188652     -10.43659878
H       -0.53552669       0.83509481      -1.82974923      12.93901634      19.25283051     -40.62421799
H        1.20629954      -0.87749004       1.28879678     -41.06355286     -11.30555534     -31.59579468
C        0.35854247       0.33911768       0.11066212      -4.97519779      31.40541077     -37.83849716
C       -0.83230513       0.66430324      -0.83230567     -48.69036102     -61.10742569      49.24679184
O        0.40556428      -0.93920463       0.63289976      52.00608444     -23.00787735      23.25934219
9
Properties=species:S:1:pos:R:3:forces[energy/ft]:R:3 energy/ft=-97077.4296875 pbc="F F F"
H       -0.96895874      -1.15301418      -0.42260045       2.66704845      33.73279572       8.62375641
H       -0.82961071       0.68455696      -0.88079149     -32.83833694       4.34547901     -19.63871193
H       -1.60691571       0.60881203       1.21545899      13.81389427       4.23096180      10.18021107
H       -0.31842718      -0.49409530       1.77308285       7.04102707      21.10257339       3.48377323
H        0.06271647       1.27020657       1.35827374      18.51853180      17.40811539      -0.69896305
H        0.94542575      -0.75902021      -1.54296327      -7.27700424      13.16399574      19.97438812
C       -0.43329865      -0.12509464      -0.27172554      -2.47933888     -14.01144218     -44.22811508
C       -0.50242823       0.39572436       1.09704947     -55.46267700     -54.50992203      39.58680725
O        0.87347472      -0.21317428      -0.71409506      56.01685715     -25.46256447     -17.28314781
9
Properties=species:S:1:pos:R:3:forces[energy/ft]:R:3 energy/ft=-97080.078125 pbc="F F F"
H       -0.29628962      -0.32103932      -1.50281620       2.27873349      -0.34927225       6.26168489
H       -0.24729978       1.33316052      -0.77163368      12.16467094     -19.89010429       1.88281989
H       -0.87933195       0.41591176       1.54130971      -2.76853180       7.53514099     -26.42538643
H       -2.11039352       0.32653284       0.27006689     -39.42607880       7.04423666     -10.47204494
H       -1.22548616      -1.06085610       0.99257886      -5.19823551     -39.06605911     -13.67549706
H        1.35120046       0.16748156       0.78340483      -0.80998218      18.19472694      34.70809555
C       -0.09294194       0.21072149      -0.53944302     -34.81135559      15.08744812      23.04319000
C       -1.17567503      -0.08729610       0.54222989      50.76769638      31.95962715      32.07653427
O        1.16695869      -0.14700343      -0.08480363      17.80308151     -20.51574707     -47.39939499
9
Properties=species:S:1:pos:R:3:forces[energy/ft]:R:3 energy/ft=-97066.8671875 pbc="F F F"
H        0.85842335       1.22324252      -0.64460319     -19.94879532      -3.06278968      -2.33971095
H       -0.56571144       1.37254965       0.55200738      20.79466820      -6.84826040      -2.55591774
H       -1.64957333       0.22926788      -1.49773276      40.27176666      -5.87257767     -13.22717857
H       -0.22974102      -1.09378541      -1.14870799     -24.20182419      -7.57146645     -14.07557011
H       -1.84406853      -0.55146861      -0.20795874      36.12886429     -16.60295105      15.71113014
H        0.94222301      -1.13518190       0.39994305      -0.84352696     -18.63227081     -23.10904694
C        0.06361980       0.66513759      -0.06713187       0.03029299     -47.61368561      22.63509750
C       -0.89972144      -0.28371578      -0.78908390     -47.41791916      41.53832245     -17.18915558
O        0.78436536      -0.28923795       0.80321926      -4.81351662      64.66567993      34.15035629
9
Properties=species:S:1:pos:R:3:forces[energy/ft]:R:3 energy/ft=-97081.609375 pbc="F F F"
H        0.42029527       0.22366452       1.44236302       4.99400473      -4.67162657     -20.28667450
H       -0.24677067      -1.20701206       0.73995024       0.79430199     -43.86857605       3.24445438
H       -1.98016524       0.12836680       0.95041645       9.45286179      14.59738350     -21.08289719
H       -1.00314903       1.55975533       0.29201344     -13.51565742      11.70167828      -4.11817884
H       -1.61402631       0.30245927      -0.88922310       0.44537807       0.58488107      10.46375275
H        1.89227045      -0.00039372      -0.26726195      23.55524445       8.63728714      15.55044937
C        0.06867869      -0.22905464       0.44813383       9.58476734      22.84518051      19.06245422
C       -1.24597704       0.49773687       0.15119752       5.28376675      -7.26218081       5.24493647
O        1.04321575      -0.26522294      -0.59281331     -40.59466171      -2.56402636      -8.07829762
9
Properties=species:S:1:pos:R:3:forces[energy/ft]:R:3 energy/ft=-97079.2578125 pbc="F F F"
H        0.57753938      -0.26042020       1.41340101      -3.35209846      -6.24386311     -11.72037220
H       -0.27683425      -1.50087607       0.48117980      -3.95501995      -9.67488003     -11.65620232
H       -1.86274266       0.88068789       1.09261739      26.18557358     -22.39348602      -1.59821987
H       -0.58468473       1.52003384       0.06669663      10.31608391      19.28608894      -5.99449921
H       -1.74729121       0.32289174      -0.61050183      23.12969208       8.04049206      23.91002274
H        1.48275793      -0.91336626      -0.67675930       1.37445545      20.20788765     -11.49587250
C        0.06372580      -0.45638248       0.41100752     -17.67286873      53.27270889      48.82402802
C       -1.07560325       0.58837265       0.31051540     -54.89299011     -16.88244629     -26.03943253
O        0.91145670      -0.10226297      -0.65294045      18.86717796     -45.61249924      -4.22945404
9
Properties=species:S:1:pos:R:3:forces[energy/ft]:R:3 energy/ft=-97076.6953125 pbc="F F F"
H       -0.25585398      -1.03632641       1.07314396      -5.21062040      11.08990765      -4.27544785
H       -0.77967870      -1.14611816      -0.56945521     -15.73847771      -3.59025192     -17.44817543
H       -1.97674453       0.80225354       0.71465719     -29.09073257     -12.13973427     -11.16333199
H       -0.64576894       1.70500934       1.01874352      15.47905445     -31.93885422      -8.47642803
H       -0.91359609       1.51285481      -0.62021315     -12.94720268       2.21982837     -28.79885101
H        1.16701567      -0.95816040      -1.11972165       8.04666805      16.11998940      18.11374664
C       -0.26523197      -0.46226433       0.09997404      37.76802063      12.21405220      36.58649826
C       -0.99919581       0.90011054       0.26352081      40.34911728      14.91681480      34.21388245