9
Properties=species:S:1:pos:R:3:forces:R:3 energy=-33620.296875 pbc="F F F"
H        0.16712676      -1.19985032       0.84958249      -0.34768462       0.93143964      -1.23263550
H       -0.93496192      -0.92263609      -0.68150204       0.69150072      -0.02409494       0.23706463
H       -1.75179350       0.29946017       1.28426456      -0.45814559      -0.05736767       0.45860717
H       -0.20725261       1.35456109       1.05486238      -0.31540418       0.09517035      -0.02042282
H       -1.47331512       1.17441297      -0.27787521      -0.35002947       0.57175308      -0.46441463
H        1.05895495      -0.40161255      -1.43156576      -0.67217284      -0.53492552      -2.68112016
C       -0.17406277      -0.48797864       0.01855790      -3.93995953      -0.82812601       2.51578140
C       -0.98570275       0.68695664       0.58412528       2.98706865      -1.86519051      -1.15529799
O        1.06846392      -0.16863939      -0.50269055       2.40482664       1.71134162       2.34243798
9
Properties=species:S:1:pos:R:3:forces:R:3 energy=-33619.609375 pbc="F F F"
H        1.18129134       0.88525915      -0.17645317      -2.68012691      -1.83227003       1.08750999
H        0.17896233       0.92701423       1.19442391       0.00006378      -1.03105617      -0.84359890
H       -0.96660519       1.58609307      -1.40722394       0.45578569       0.17031293      -0.10168538
H       -1.02901304      -0.11620693      -1.33654571      -0.04354860      -2.76466656      -1.95257819
H       -1.95838618       0.69792765      -0.11042000       1.33163846      -0.14860688      -0.52657443
H        0.22355606      -1.66335166       0.81210607      -3.13283038      -1.75734997       1.37690580
C        0.22927937       0.34043264       0.22884318      -1.27874339       6.31723499      -2.50829101
C       -0.98169100       0.72626406      -0.70885265       2.02727580       0.03837985       5.68451023
O        0.71408975      -0.94681150       0.42485929       3.32048559       1.00802231      -2.21619773
9
Properties=species:S:1:pos:R:3:forces:R:3 energy=-33619.7421875 pbc="F F F"
H       -0.16287301      -0.64302266      -1.31618953       0.18289365      -0.22431231       0.16623947
H        1.27993143       0.23446093      -0.84324062       0.48386398      -0.04576823       0.24359706
H       -0.15128420       1.86927974       0.33956012       1.11451590       1.54517651       1.39352131
H       -0.73139244       1.33792961      -1.27271819      -0.61369157       0.79050386      -1.11394382
H       -1.58192611       0.89916372       0.35305250      -1.34410703      -0.39184806       0.91699731
H        0.47292662      -1.91071820       0.44558433      -1.35968435       8.83594513       1.44210136
C        0.28678676      -0.08054401      -0.47353047      -1.51794267       2.36279941      -2.50970554
C       -0.66671067       1.10165906      -0.21085352       1.86085653      -3.46930552      -1.37413609
O        0.34024510      -0.87922674       0.65828067       1.19329572      -9.40319061       0.83532888
9
Properties=species:S:1:pos:R:3:forces:R:3 energy=-33620.5625 pbc="F F F"
H        0.73682141       0.60933280       1.20367754      -0.16406734      -0.50774550      -0.46292648
H        0.20738342      -1.18308222       1.05047297       0.19118695       2.43803144      -1.30101085
H       -1.69259262       0.49096048       1.31016600       0.13927446       0.10443789      -0.26687551
H       -1.30606592       1.32318795      -0.23431621      -0.06766778       1.26365817      -0.70306206
H       -1.70920885      -0.40667254      -0.34700012       0.82787633       1.58861530       1.18314350
H        1.35608721       0.56051379      -0.94232261      -0.87383181      -0.71883404       0.55457133
C        0.23183474      -0.12985821       0.52582657      -1.13727653      -1.14816654       1.18940699
C       -1.18366456       0.38676775       0.31135696       1.10076141      -3.71372843      -0.42465448
O        0.86614728      -0.28079090      -0.75703090      -0.01625563       0.69373196       0.23140757
9
Properties=species:S:1:pos:R:3:forces:R:3 energy=-33619.75390625 pbc="F F F"
H       -0.87935394      -0.15919401      -1.21730030       2.45230031       1.41559601       2.26751328
H       -0.10909584       1.41295636      -0.83407068       0.15342553      -2.89384508       1.30111170
H       -0.93711597       1.02779722       1.56785154       0.51279926      -1.11719394      -1.05010831
H       -2.14823914      -0.25472394       0.62550139       6.06047678       1.87467360       1.21588922
H       -0.83256197      -0.75066757       1.49935627       0.74470448      -0.76800513       0.43103427
H        1.10102761      -1.19816208      -0.86612535      -0.93457144       1.51903355       1.01219463
C       -0.16215552       0.30163890      -0.42246819      -5.39597178       0.48859659      -0.20652416
C       -1.01965809       0.11629742       0.87294358      -3.43811011       0.11475940      -5.25413370
O        1.12685263      -0.31875229      -0.38700783      -0.15505368      -0.63361537       0.28302309
9
Properties=species:S:1:pos:R:3:forces:R:3 energy=-33619.984375 pbc="F F F"
H        0.46401241       0.79285848      -1.38125646      -0.73996359      -1.18469644       3.71969986
H        0.20788686       1.53876960       0.19087164       0.03129752      -2.58706951      -0.81106794
H       -1.77791131       0.57126886      -1.11048698       1.83296108      -2.48733616       3.87453294
H       -1.43207002      -1.09946346      -0.58902216       0.39533311       2.37297678       1.24851227
H       -1.94568193       0.23901528       0.70762861       0.98866034      -0.37734646      -0.54819286
H        1.07884097      -1.25289726       0.08899116      -0.73230088      -3.24740577      -2.14500737
C        0.16051447       0.47118190      -0.27603519      -1.89453053       1.45418656      -2.02583194
C       -1.29449856      -0.01470279      -0.19208422       1.43358183       1.28746724      -4.76668119
O        1.06572139      -0.39251262       0.48328918      -1.31503916       4.76922369       1.45403636
9
Properties=species:S:1:pos:R:3:forces:R:3 energy=-33620.2734375 pbc="F F F"
H        0.25646645      -0.70603085       1.24814153       1.40112805      -0.84313434       1.97550213
H       -0.74156523      -1.30415916       0.04132189      -0.62607372      -1.82836485      -0.82085073
H       -1.84240460       0.32768947       1.12246835       0.76725852       0.54576766      -0.44338641
H       -0.47651708       1.63510585       0.74587178       0.38987124       1.04222465       0.35527596
H       -1.64336371       0.94310844      -0.38378704      -0.03548983       0.22892725      -0.21588781
H        0.96245444       0.67635882      -0.73651159       0.95480323       1.64017820      -0.75084162
C       -0.07542610      -0.45712149       0.25290406       0.00599277      -0.41956770      -0.28634933
C       -0.96684676       0.68763745       0.47179201      -3.23156595       0.80195904       0.60732126
O        1.00191438      -0.27218050      -0.67238706       0.37407571      -1.16798997      -0.42078340
9
Properties=species:S:1:pos:R:3:forces:R:3 energy=-33620.125 pbc="F F F"
H       -1.16740370      -0.04642054      -1.04643285      -0.31112427      -0.16715170      -0.28773522
H       -0.41837057       1.37343276      -0.37195045      -0.07235827       2.74295521      -0.64302039
H       -1.21933401       0.63701469       1.72605324      -1.07063949       0.62925303       0.69797730
H       -0.76561308      -1.04364443       1.48839176      -0.53576708      -2.05428433       0.49262416
H        0.40770981       0.37763062       1.55269790       3.74663067       1.38704824       2.19489932
H        1.52310145      -0.22711024      -0.23440266      -1.00856709      -0.31034029      -1.68090200
C       -0.40725085       0.31780532      -0.30939537       1.81956506      -4.66306925       4.54995537
C       -0.49867448      -0.02438477       1.23740935      -1.68804133       1.13842201      -7.91684771
O        0.78332508      -0.28782979      -0.89285743      -0.87969816       1.29716694       2.59304929
9
Properties=species:S:1:pos:R:3:forces:R:3 energy=-33619.38671875 pbc="F F F"
H       -1.08428407      -0.69356513      -0.54554743      -1.97205019      -2.77081323      -1.01784515
H       -0.78964877       1.07738078      -0.63811547       1.22346187      -2.77100134       0.89562136
H       -1.42217708       0.37218922       1.59026265      -2.98655772       0.57566893       0.65978718
H       -0.31052443      -0.61642474       1.86346364       0.80879712      -2.03633428       0.64504713
H        0.14669883       0.96785182       1.68382132       1.77382183       1.78483534       0.62583655
H        1.53006959       0.12554468      -0.63059956       4.43784475       2.92183399       2.82917047
C       -0.39506549       0.04273486      -0.23225658      -3.60053086       6.38515425      -6.29931927
C       -0.44644767       0.21672186       1.17279291       1.27347386       0.34995192       5.79922295
O        0.75323790      -0.27254370      -0.91542000      -0.95826125      -4.43929577      -4.13752079
9
Properties=species:S:1:pos:R:3:forces:R:3 energy=-33618.84765625 pbc="F F F"
H        0.26198381       1.46392727      -0.13934629       0.24436840       2.81388474      -0.75553292
H        1.01269734       0.46978894       1.13741493       0.20929170       0.02951759       0.14804292
H       -1.73269761       0.88549674       1.13283801       3.67843032      -6.87208176      -2.82144189
H       -1.63732576      -0.53755265      -0.24255852       0.57550752       0.38616601       2.14063025
H       -1.20171094      -0.82079589       1.52365041       0.17682794      -0.43889982       0.08741748
H        0.26375070       0.03176322      -1.59627581       4.82666969      -3.72983551       5.23463154
C        0.29654172       0.50469100       0.28007993      -6.23288202     -11.29475403      -2.42541862
C       -1.14907515      -0.11796465       0.69799167       4.36075211      10.75592232      -2.10255003
O        0.83102578      -0.38444224      -0.84862334      -7.83896542       8.35008144       0.49422145
9
Properties=species:S:1:pos:R:3:forces:R:3 energy=-33620.1171875 pbc="F F F"
H        1.18544424       0.47993553      -0.77193564       2.17156649      -0.04663647      -1.84691656
H        0.21616322       1.49827003       0.28010052      -0.06675325       0.95988911       0.19060051
H       -1.54437828       0.79530865      -1.46921134      -0.14434324       0.88494068      -0.56633890
H       -0.93680513      -0.97794425      -1.18058586       0.19339824       0.31255192      -0.36233857
H       -1.69286156      -0.21725281       0.02235908       1.69874787       1.16474462      -2.85428333
H        0.85485768      -0.10103213       1.66994977      -0.21708490       0.98881149       0.36565450
C        0.31831759       0.49814430      -0.15661292      -1.44922578      -2.16462135       3.26774812
C       -0.96531028       0.09022651      -0.83965904      -1.80784738      -2.62506223       4.41284704
O        0.60643798      -0.53484958       0.83920366      -0.37845796       0.52538192      -2.60697269
9
Properties=species:S:1:pos:R:3:forces:R:3 energy=-33619.85546875 pbc="F F F"
H        0.58942014       0.56850415       1.45765340      -0.04835612       0.41246775      -0.08182752
H        0.19084583      -0.97177398       1.11895347      -0.01947723       1.20470726      -0.40931511
H       -1.91754603      -0.63864160       0.32633665      -0.48713568       0.19230425       0.06060284
H       -1.74687612       1.20677948       0.04724915      -1.49526787       3.21316671       0.36879641
H       -0.99806798       0.04567495      -1.06048417      -1.41410577       0.44179636       0.15849340
H        1.44465923       0.56652415      -0.77008480       0.99429321       2.81978798      -0.66270220
C        0.14530499       0.03149213       0.59344125      -4.59730053      -1.41945708      -3.20647049
C       -1.32273293       0.23833993      -0.01808530       9.28754139      -4.55561543       1.21381128
O        1.03739238      -0.25161076      -0.50245267      -2.22019053      -2.30915689       2.55861139
9
Properties=species:S:1:pos:R:3:forces:R:3 energy=-33620.3671875 pbc="F F F"
H       -1.43890595      -0.04261626       0.04499329       0.47831377      -0.23226632      -0.29800189
H       -0.27171803      -0.73808193      -1.24139941       0.16436586      -0.02012688      -0.04909626
H       -0.74988008       1.96914649      -0.40386763      -1.32609630       0.98823178       0.03643717
H        0.84527570       1.63080645       0.40630284      -1.76473534      -0.89895499      -1.77232480
H        0.72931486       1.31501126      -1.24821329       1.44149566      -0.09903219      -1.91841578
H       -0.25795770      -1.04518569       1.39416111       0.20764872       0.46215463      -0.33547312
C       -0.37672150      -0.16038448      -0.29537192      -3.37310982      -0.34813100      -1.33488584
C        0.07656428       1.25944448      -0.39901713       2.75303411       1.21787465       4.18630600
O        0.29732707      -1.01976323       0.58729970       1.41908300      -1.06974971       1.48545468
9
Properties=species:S:1:pos:R:3:forces:R:3 energy=-33620.19921875 pbc="F F F"
H       -0.48917454      -1.31430459      -0.63255769      -0.04279408      -2.38270092      -0.45017940
H       -0.79148257       0.47502047      -1.23857665       2.39359498      -3.69981194       2.98927546
H       -1.98997390       0.15442517       1.07170773      -0.97655654      -0.25754479      -0.02212115
H       -0.46969858      -0.22659287       1.73313308       0.38132977      -0.73458117       0.98771471
H       -0.69232571       1.32907271       0.98433238      -0.22944243       0.41595778       0.24940303
H        1.41693759       0.47579589       0.31310838       0.15290356      -0.59900945      -0.77625513
C       -0.27858835      -0.28003755      -0.43222728      -6.41604662       6.43738890      -1.92422366
C       -0.90491611       0.25323355       0.85648638       1.37515461       0.10761064      -1.65157235
O        1.07837689      -0.03625684      -0.45904917       3.36185741       0.71269071       0.59795856
9
Properties=species:S:1:pos:R:3:forces:R:3 energy=-33620.00390625 pbc="F F F"
H       -0.57660764      -1.28615212      -0.67026657       0.48601240       1.21646714       0.48379114
H       -0.75700259       0.52706623      -1.19368887       1.08788133      -2.00524259       1.70841420
H       -2.05342436       0.33616307       0.81875616       0.67538410      -0.14107814       0.14585720
H       -0.80510265      -0.44272026       1.68974471       1.18901634      -4.10647774       4.84680367
H       -0.61162323       1.22955155       1.03502202       0.61815304       1.61295223       0.68514425
H        1.21938944       0.41082615      -1.21379507       0.20461284       1.52444100      -2.19305730
C       -0.29376757      -0.20132971      -0.40779039      -1.19221950       0.14661300      -4.16950321
C       -0.92128670       0.19647111       0.88363361      -2.22167706       3.36323071      -4.63012838
O        1.13788557      -0.04525437      -0.38655707      -0.84716374      -1.61090577       3.12267923
9
Properties=species:S:1:pos:R:3:forces:R:3 energy=-33620.12109375 pbc="F F F"
H       -1.45666134       0.27539563      -0.23977017      -2.81238508       0.41668689       0.33304352
H       -0.18851714      -0.13814463      -1.42816246       0.11108537      -0.35619903      -1.59313536
H        1.37903249       0.85525727      -0.02389291       4.22078514      -0.98180556      -0.34395298
H        0.14404508       2.16390276      -0.55387473       0.43801704      -1.71338451       1.12238646
H        0.29274240       1.62288308       1.07114100      -0.32860214       0.97779661       2.66412830
H        0.31242073      -1.01058650       1.09121060       0.83363146       0.26485533       2.41019249
C       -0.40961096       0.09678593      -0.38593292       0.86891782      -6.82947540       1.07785690
C        0.39610326       1.21004820       0.07991633      -1.42494297       5.24577618      -2.01025939
O       -0.02035437      -1.21855426       0.23497656      -1.90650678       2.97574878      -3.66025996
9
Properties=species:S:1:pos:R:3:forces:R:3 energy=-33619.984375 pbc="F F F"
H       -1.40103173      -0.13505770      -0.41215083      -4.83240891       0.15994957       0.52296680
H       -0.27410343      -0.61390245      -1.43780744       0.69781482      -1.74048209      -3.70349240
H       -0.38000351       1.89837229      -1.01944435       0.13622628      -0.26726422       0.33175576
H        0.02660654       1.71996737       0.73190868       0.08278510      -0.33888721      -0.29458073
H        1.11514616       1.17495286      -0.68345934       1.64167380       0.02189320      -0.42990041
H        0.25925905      -1.81175506       0.55349338      -0.13569565      -2.45233202      -1.33221292
C       -0.36176115      -0.23418257      -0.45732576       4.19191933       1.66803241       3.68076658
C        0.11360337       1.19645298      -0.27366450      -1.67389297      -0.41850197       0.23367064
O        0.22743806      -0.86311722       0.69159895      -0.10842115       3.36759186       0.99102676
9
Properties=species:S:1:pos:R:3:forces:R:3 energy=-33619.32421875 pbc="F F F"
H        0.12549745      -0.81275684       1.31667602       0.13047875       0.04680361       0.65484887
H       -0.43211240      -1.28015578      -0.37668005       0.05301539      -0.18600467       0.15726250
H       -1.95687532      -0.12698744       0.68508166       1.30837715       1.52014685      -0.44069386
H       -1.00999308       1.56854260       0.69893193       0.70078152       0.82898062       0.41746894
H       -1.39264739       0.59538698      -0.77898324      -0.36746958       0.55750889      -2.02108908
H        1.89682686      -0.56092387      -0.39668989       0.15008307      -0.78923774       0.73344517
C       -0.11985849      -0.45706087       0.29021525      10.06281185      -5.30766010      -2.94092512
C       -1.10381448       0.53410500       0.26175055      -7.30131388       2.79393101       1.70440340
O        1.09300745      -0.01906781      -0.48670262      -4.73676491       0.53553164       1.73527956
9
Properties=species:S:1:pos:R:3:forces:R:3 energy=-33620.08984375 pbc="F F F"
H       -0.55100876       0.46864763       1.32674229       0.12886980       0.24026731       1.49449170
H       -1.48063993      -0.09782450       0.03319797       0.31644666      -0.37026680       0.27790004
H        1.00153518       0.78096861      -0.87854838       3.75974274      -0.98752284      -1.06208742
H       -0.58962625       1.22183335      -1.59806418       0.17295480       0.01595201       0.17970866
H        0.26847246       2.13686275      -0.26591361       0.21409246       1.13154662       0.61772186
H        0.52794570      -1.48228931      -0.44396493       1.03178775      -1.89792478      -5.43255520
C       -0.40748036       0.06664690       0.32158297      -3.15057611       3.44065571      -2.21198511
C        0.04143735       1.14246356      -0.66572517      -3.34814024      -0.95201445       0.30327928
O        0.32659316      -1.09854233       0.37341666       0.87482232      -0.62069273       5.83352613
9
Properties=species:S:1:pos:R:3:forces:R:3 energy=-33619.6328125 pbc="F F F"
H       -1.29843020       0.09349653      -0.88897395       1.07739651       0.19056007       0.45090368
H       -0.20631646       1.42827153      -0.37998226      -0.16490173      -0.77929103      -0.35598698
H       -1.28088272       0.61956853       1.67600596      -2.94433355       2.58351326       1.66298151
H       -0.67936277      -1.18203092       1.55888116       0.01860589       2.59623718      -0.68222231
H        0.42137581       0.27026337       1.64237225      -1.81941366      -0.74258196       0.31115508
H        1.50165856      -0.25831732      -0.31734824       3.26969051      -0.00512889       2.56191921
C       -0.35239583       0.33550456      -0.29272151      -0.35800678      -2.63625717       7.05767822
C       -0.59609610      -0.05046819       1.27183282       6.78268290      -2.38338256      -9.92921734
O        0.80910885      -0.27525795      -0.94234145      -5.86172009       1.17633152      -1.07721055
9
Properties=species:S:1:pos:R:3:forces:R:3 energy=-33619.37109375 pbc="F F F"
H       -0.75846219      -0.56169814      -1.22063255       0.46364880       0.84660822       1.20057523
H       -0.30803147       1.06693804      -1.12660706      -0.02478381      -1.13078964       1.06112003
H       -2.03356838       0.50760913       0.84039348      -1.44621921       0.32361943      -0.42077285
H       -0.88343853      -0.55045128       1.44501543       1.00619555      -7.62452126       4.17707348
H       -0.50618756       1.05407560       1.55373943       1.98722970       2.76730967       2.11183214
H        1.78728974       0.22241502      -0.66641653      -1.75358737      -0.37511587       0.81232649
C       -0.29512057       0.13737315      -0.46254405       4.08597088      -1.62296057       1.51490843
C       -0.96674252       0.32626507       0.94126081       1.57700849       3.79114747     -10.45716190
O        1.11746168      -0.45769385      -0.41137609      -5.89546299       3.02470279       0.00010026
9
Properties=species:S:1:pos:R:3:forces:R:3 energy=-33619.90234375 pbc="F F F"
H       -0.16238759      -0.29204977      -1.54135478      -0.21726635       0.59099501       1.77689576
H        0.01395808       1.27701700      -0.97584826      -0.35230720      -1.23527753       0.82935876
H       -1.13453579       0.40057608       1.57855725       0.23429029      -0.86010307      -1.99984097
H       -2.24132657       0.38641247       0.39500764       1.14703202      -0.23322731      -0.38294435
H       -1.37281930      -1.13865924       0.88505614       0.50228226       0.25136960      -0.45365858
H        1.64828968       0.41912824       0.62695152      -2.67798328      -1.96221924      -2.55476737
C       -0.12391654       0.24248832      -0.53370512       0.50806808      -1.76984644       3.52706742
C       -1.23675740      -0.08723224       0.55098224       4.01338768       2.29771900      -1.79609728
O        1.22606266      -0.18294607      -0.07397582      -3.15750289       2.92058992       1.05398643
9
Properties=species:S:1:pos:R:3:forces:R:3 energy=-33619.61328125 pbc="F F F"
H        1.18522012       0.75022686      -0.56905675      -0.70145893      -0.74582988       0.83656663
H        0.36007804       0.98931378       0.97492576      -0.07486069       0.53679788       0.89988780
H       -1.60870159      -0.21907967      -0.95537585       2.17815614       2.19646573       0.47039798
H       -1.40063167       1.47192204      -0.35662329      -0.47954741       0.66549605       0.54376465
H       -0.53552669       0.83509481      -1.82974923       1.24472129       0.42722097      -3.17461514
H        1.20629954      -0.87749004       1.28879678      -5.34137249      -0.21409956      -4.50435066
C        0.35854247       0.33911768       0.11066212      -0.41306436       4.54372978      -4.37278175
C       -0.83230513       0.66430324      -0.83230567      -0.86542225      -4.90058374       4.50453281
O        0.40556428      -0.93920463       0.63289976       4.45284891      -2.50919676       4.79659700
9
Properties=species:S:1:pos:R:3:forces:R:3 energy=-33619.984375 pbc="F F F"
H       -0.96895874      -1.15301418      -0.42260045       1.17992616       2.10905290       0.29272479
H       -0.82961071       0.68455696      -0.88079149      -0.23313192       0.81187189      -0.66262013
H       -1.60691571       0.60881203       1.21545899       0.29633522       0.11118935       0.12160505
H       -0.31842718      -0.49409530       1.77308285       0.26394448       0.26858658      -0.14042389
H        0.06271647       1.27020657       1.35827374       1.77737665       2.15150237       0.29447666
H        0.94542575      -0.75902021      -1.54296327      -0.65048361       0.12582701       0.64915186
C       -0.43329865      -0.12509464      -0.27172554      -4.29452229      -4.28942108      -3.05161929
C       -0.50242823       0.39572436       1.09704947      -1.96851432      -1.66515219       2.82784653
O        0.87347472      -0.21317428      -0.71409506       3.62906981       0.37654346      -0.33114153
9
Properties=species:S:1:pos:R:3:forces:R:3 energy=-33620.15625 pbc="F F F"
H       -0.29628962      -0.32103932      -1.50281620       0.23064882      -0.25323069      -0.06434637
H       -0.24729978       1.33316052      -0.77163368       0.61548173      -1.61773133      -0.04382075
H       -0.87933195       0.41591176       1.54130971      -1.06127679      -1.20772231      -2.04466438
H       -2.11039352       0.32653284       0.27006689      -3.10523868       1.20878065      -1.07805109
H       -1.22548616      -1.06085610       0.99257886      -0.13058177      -2.50415206       0.73515266
H        1.35120046       0.16748156       0.78340483       0.62196493       1.40042472       3.50801373
C       -0.09294194       0.21072149      -0.53944302      -5.78188705       2.27475190       1.60610080
C       -1.17567503      -0.08729610       0.54222989       6.80268240       3.03276992       0.51753783
O        1.16695869      -0.14700343      -0.08480363       1.80820560      -2.33389091      -3.13592219
9
Properties=species:S:1:pos:R:3:forces:R:3 energy=-33620.3359375 pbc="F F F"
H        0.85842335       1.22324252      -0.64460319      -0.25979060       0.03768244       0.29925495
H       -0.56571144       1.37254965       0.55200738       0.35300237       0.19972602      -0.02387118
H       -1.64957333       0.22926788      -1.49773276       0.78301626      -0.32666755       0.34649789
H       -0.22974102      -1.09378541      -1.14870799      -0.82613623       0.07288581      -0.45874363
H       -1.84406853      -0.55146861      -0.20795874       1.08677518       0.13109624      -0.68387860
H        0.94222301      -1.13518190       0.39994305       0.72602117      -2.65044761      -1.10502684
C        0.06361980       0.66513759      -0.06713187      -0.82895958      -4.47140837       0.05643636
C       -0.89972144      -0.28371578      -0.78908390       0.68282962       2.00535154       1.72469437
O        0.78436536      -0.28923795       0.80321926      -1.71675777       5.00178146      -0.15536326
9
Properties=species:S:1:pos:R:3:forces:R:3 energy=-33620.06640625 pbc="F F F"
H        0.42029527       0.22366452       1.44236302      -0.07627222      -0.72581840      -1.49261498
H       -0.24677067      -1.20701206       0.73995024      -0.28650674      -2.43447018       0.27625346
H       -1.98016524       0.12836680       0.95041645       0.72770762       0.50931895      -1.13307583
H       -1.00314903       1.55975533       0.29201344       0.11670978       0.94236100      -0.20511776
H       -1.61402631       0.30245927      -0.88922310       0.17034543       0.00272086      -0.28336781
H        1.89227045      -0.00039372      -0.26726195       2.42331815       1.33263874       1.82234144
C        0.06867869      -0.22905464       0.44813383      -1.06912732       3.84194565       1.99797082
C       -1.24597704       0.49773687       0.15119752       1.72528958      -2.27112627       1.40586889
O        1.04321575      -0.26522294      -0.59281331      -3.73146391      -1.19757068      -2.38825822
9
Properties=species:S:1:pos:R:3:forces:R:3 energy=-33620.21875 pbc="F F F"
H        0.57753938      -0.26042020       1.41340101      -0.64805347      -0.25326931      -1.08883142
H       -0.27683425      -1.50087607       0.48117980      -0.34794980      -0.74956006      -0.03595861
H       -1.86274266       0.88068789       1.09261739       0.65917557      -0.40575564      -0.22998738
H       -0.58468473       1.52003384       0.06669663       0.45449135       1.18934309      -0.14728594
H       -1.74729121       0.32289174      -0.61050183       1.52859306       0.53362048       2.20337081
H        1.48275793      -0.91336626      -0.67675930      -0.87364799       0.66085958       0.19056641
C        0.06372580      -0.45638248       0.41100752      -1.66942835       2.88513350       1.92746520
C       -1.07560325       0.58837265       0.31051540       0.20576012      -3.64836574      -2.17950964
O        0.91145670      -0.10226297      -0.65294045       0.69105995      -0.21200576      -0.63982916
9
Properties=species:S:1:pos:R:3:forces:R:3 energy=-33619.93359375 pbc="F F F"
H       -0.25585398      -1.03632641       1.07314396      -0.00602546       0.65227485      -0.74059534
H       -0.77967870      -1.14611816      -0.56945521      -0.45866188      -0.14486629      -0.39140236
H       -1.97674453       0.80225354       0.71465719      -1.41823292      -0.63842380       0.47093177
H       -0.64576894       1.70500934       1.01874352      -0.12045044      -1.73992109      -1.45139003
H       -0.91359609       1.51285481      -0.62021315       0.34901768       0.80883062      -1.89419138
H        1.16701567      -0.95816040      -1.11972165      -0.72468984       1.64730954       1.71790838
C       -0.26523197      -0.46226433       0.09997404       2.37466955       1.99572182       0.51496106
C       -0.99919581       0.90011054       0.26352081       4.01873112      -2.08701777       1.82194400
O        1.16362643      -0.38419241      -0.30419451      -4.01435804      -0.49390745      -0.04816604
9
Properties=species:S:1:pos:R:3:forces:R:3 energy=-33620.43359375 pbc="F F F"
H        0.20445351      -1.53505337      -0.12321536       0.12152981      -0.05780309       0.14876838
H        0.41599274      -0.46118268      -1.46591413      -0.09722543       0.06688397       2.14291406