9
Properties=species:S:1:pos:R:3:forces:R:3 energy=-47.25346755981445 pbc="F F F"
H        0.16712676      -1.19985032       0.84958249      -0.95565200       0.25230604      -0.36003804
H       -0.93496192      -0.92263609      -0.68150204       0.64146680      -0.39570162      -0.01337884
H       -1.75179350       0.29946017       1.28426456       0.18894240       0.18646650      -0.06356424
H       -0.20725261       1.35456109       1.05486238      -0.71632636      -0.12281443      -0.03961466
H       -1.47331512       1.17441297      -0.27787521       0.00664788       0.22028923       0.20128220
H        1.05895495      -0.40161255      -1.43156576       0.13280487      -0.05758861      -0.61574441
C       -0.17406277      -0.48797864       0.01855790      -0.42959568      -0.66910923       1.24275136
C       -0.98570275       0.68695664       0.58412528       1.06363511      -0.03094566      -0.04427189
O        1.06846392      -0.16863939      -0.50269055       0.06807700       0.61709768      -0.30742145
9
Properties=species:S:1:pos:R:3:forces:R:3 energy=-46.92119598388672 pbc="F F F"
H        1.18129134       0.88525915      -0.17645317      -1.11219037      -0.63319027       0.08816567
H        0.17896233       0.92701423       1.19442391      -0.38971344      -0.55549395      -0.20049772
H       -0.96660519       1.58609307      -1.40722394       0.43057066       0.11173931       0.57739580
H       -1.02901304      -0.11620693      -1.33654571      -0.32538629      -1.23516822      -1.15957201
H       -1.95838618       0.69792765      -0.11042000       0.83746952       0.22853002      -0.53580713
H        0.22355606      -1.66335166       0.81210607      -1.10662234      -0.15736210       0.44018921
C        0.22927937       0.34043264       0.22884318       1.28766346       2.82207441      -0.02709699
C       -0.98169100       0.72626406      -0.70885265      -0.38372892      -0.69556540       1.74933004
O        0.71408975      -0.94681150       0.42485929       0.76193786       0.11443627      -0.93210715
9
Properties=species:S:1:pos:R:3:forces:R:3 energy=-47.122406005859375 pbc="F F F"
H       -0.16287301      -0.64302266      -1.31618953       0.02865160      -0.16482180      -0.05529460
H        1.27993143       0.23446093      -0.84324062       0.10987121       0.21795289       0.16259451
H       -0.15128420       1.86927974       0.33956012       0.32463977       0.53585857       0.19710597
H       -0.73139244       1.33792961      -1.27271819      -0.76634431       0.90200359      -0.11416516
H       -1.58192611       0.89916372       0.35305250      -0.14219056      -0.34343705      -0.34256524
H        0.47292662      -1.91071820       0.44558433      -0.24529666       2.58303118       0.30504408
C        0.28678676      -0.08054401      -0.47353047      -1.00619745      -0.46069285       0.27060884
C       -0.66671067       1.10165906      -0.21085352       1.10425484      -0.61945117      -0.53198338
O        0.34024510      -0.87922674       0.65828067       0.59261161      -2.65044355       0.10865507
9
Properties=species:S:1:pos:R:3:forces:R:3 energy=-47.326202392578125 pbc="F F F"
H        0.73682141       0.60933280       1.20367754       0.15971965      -0.34494659      -0.25465682
H        0.20738342      -1.18308222       1.05047297       0.06151841       1.15591061      -0.58847773
H       -1.69259262       0.49096048       1.31016600       0.09994737      -0.11380713      -0.47869268
H       -1.30606592       1.32318795      -0.23431621       0.28215760       0.27422929      -0.05968467
H       -1.70920885      -0.40667254      -0.34700012       0.27536401       0.73362303       0.72579062
H        1.35608721       0.56051379      -0.94232261      -0.30371118      -0.54372907       0.11425904
C        0.23183474      -0.12985821       0.52582657      -0.21625865      -0.30456743      -0.14968894
C       -1.18366456       0.38676775       0.31135696      -0.62728852      -1.39528728       0.03185235
O        0.86614728      -0.28079090      -0.75703090       0.26855114       0.53857452       0.65929890
9
Properties=species:S:1:pos:R:3:forces:R:3 energy=-46.87173843383789 pbc="F F F"
H       -0.87935394      -0.15919401      -1.21730030       1.12328458       0.19486715       0.44638044
H       -0.10909584       1.41295636      -0.83407068       0.16409752      -1.36127627       0.96529436
H       -0.93711597       1.02779722       1.56785154      -0.43876505      -0.87474364      -0.72035444
H       -2.14823914      -0.25472394       0.62550139       1.81721926       1.47620320       0.21440050
H       -0.83256197      -0.75066757       1.49935627       0.99007356      -0.39270270       0.10936463
H        1.10102761      -1.19816208      -0.86612535      -0.11930602       0.93652838       0.46176773
C       -0.16215552       0.30163890      -0.42246819      -1.25760031      -0.25683159      -0.87484527
C       -1.01965809       0.11629742       0.87294358      -1.56388068       0.52731991      -0.17552638
O        1.12685263      -0.31875229      -0.38700783      -0.71512240      -0.24936453      -0.42648169
9
Properties=species:S:1:pos:R:3:forces:R:3 energy=-47.00226974487305 pbc="F F F"
H        0.46401241       0.79285848      -1.38125646      -0.14591773      -1.04490805       1.33038044
H        0.20788686       1.53876960       0.19087164       0.06186865      -1.25064909      -0.13292155
H       -1.77791131       0.57126886      -1.11048698       0.37323862      -0.68178654       1.41215682
H       -1.43207002      -1.09946346      -0.58902216       0.24850227       1.05104661       0.81138337
H       -1.94568193       0.23901528       0.70762861       0.84012747      -0.36290705      -0.57918262
H        1.07884097      -1.25289726       0.08899116      -0.09483282      -0.85034484      -0.51889348
C        0.16051447       0.47118190      -0.27603519       0.06599575       0.86528909       0.36393967
C       -1.29449856      -0.01470279      -0.19208422      -0.88764572       0.36206609      -2.32706308
O        1.06572139      -0.39251262       0.48328918      -0.46133643       1.91219378      -0.35979950
9
Properties=species:S:1:pos:R:3:forces:R:3 energy=-47.1618766784668 pbc="F F F"
H        0.25646645      -0.70603085       1.24814153       0.79849625      -0.28518754       0.63171506
H       -0.74156523      -1.30415916       0.04132189       0.15114132      -0.34613931      -0.56779683
H       -1.84240460       0.32768947       1.12246835       1.07432771       0.52415240       0.13612358
H       -0.47651708       1.63510585       0.74587178      -0.05626919      -0.05202038       0.38465545
H       -1.64336371       0.94310844      -0.38378704       0.56069970       0.00429132      -0.27898076
H        0.96245444       0.67635882      -0.73651159       0.38911828       0.84583044      -0.41276199
C       -0.07542610      -0.45712149       0.25290406      -0.04756457      -0.38554519      -0.12919265
C       -0.96684676       0.68763745       0.47179201      -2.05962062       0.33326554      -0.38853627
O        1.00191438      -0.27218050      -0.67238706      -0.81032902      -0.63864720       0.62477446
9
Properties=species:S:1:pos:R:3:forces:R:3 energy=-47.14991760253906 pbc="F F F"
H       -1.16740370      -0.04642054      -1.04643285      -0.11247212       0.01793434       0.65973949
H       -0.41837057       1.37343276      -0.37195045       0.21784210       1.25444007      -0.21040872
H       -1.21933401       0.63701469       1.72605324      -0.39813912       0.08612362      -0.04028550
H       -0.76561308      -1.04364443       1.48839176       0.29508904      -0.38025677       0.06084684
H        0.40770981       0.37763062       1.55269790       1.82388520       0.12189343       1.02051568
H        1.52310145      -0.22711024      -0.23440266      -0.51690263       0.01206558      -0.43216184
C       -0.40725085       0.31780532      -0.30939537       0.35816562      -1.99814510       0.18705851
C       -0.49867448      -0.02438477       1.23740935      -1.64187384       0.39663637      -2.02224255
O        0.78332508      -0.28782979      -0.89285743      -0.02559423       0.48930842       0.77693844
9
Properties=species:S:1:pos:R:3:forces:R:3 energy=-46.88740539550781 pbc="F F F"
H       -1.08428407      -0.69356513      -0.54554743      -1.14320183      -0.89125425      -0.37459445
H       -0.78964877       1.07738078      -0.63811547       0.27080971      -1.18675303       0.15206164
H       -1.42217708       0.37218922       1.59026265      -1.34362531       0.77847695      -0.44133988
H       -0.31052443      -0.61642474       1.86346364       0.86019766      -1.13748491      -0.29419398
H        0.14669883       0.96785182       1.68382132       0.56665105       0.70869583      -0.32819456
H        1.53006959       0.12554468      -0.63059956       2.06216526       1.42362714       1.16117072
C       -0.39506549       0.04273486      -0.23225658      -0.71766663       2.59997153      -2.19290829
C       -0.44644767       0.21672186       1.17279291       0.35567403      -0.39954224       3.63157725
O        0.75323790      -0.27254370      -0.91542000      -0.91100436      -1.89573717      -1.31357884
9
Properties=species:S:1:pos:R:3:forces:R:3 energy=-46.77784729003906 pbc="F F F"
H        0.26198381       1.46392727      -0.13934629      -0.31895500       1.52215815      -0.38114724
H        1.01269734       0.46978894       1.13741493      -0.21983719      -0.07213007      -0.39013228
H       -1.73269761       0.88549674       1.13283801       0.86064667      -2.21300316      -1.03038096
H       -1.63732576      -0.53755265      -0.24255852       0.25412300       0.48569745       0.90020204
H       -1.20171094      -0.82079589       1.52365041       0.39756787      -0.33715639       0.12190582
H        0.26375070       0.03176322      -1.59627581       1.12560177      -1.00138533       0.92855591
C        0.29654172       0.50469100       0.28007993      -0.60856414      -3.90816474       0.04908499
C       -1.14907515      -0.11796465       0.69799167      -0.04083240       3.49626255      -0.39169261
O        0.83102578      -0.38444224      -0.84862334      -1.44975042       2.02772141       0.19360432
9
Properties=species:S:1:pos:R:3:forces:R:3 energy=-47.17949676513672 pbc="F F F"
H        1.18544424       0.47993553      -0.77193564       0.69412702       0.18771636      -0.87095881
H        0.21616322       1.49827003       0.28010052       0.02455360       0.12743308       0.21959960
H       -1.54437828       0.79530865      -1.46921134       0.45843363      -0.19736135      -0.03889408
H       -0.93680513      -0.97794425      -1.18058586       0.39241296       0.61389118      -0.62770700
H       -1.69286156      -0.21725281       0.02235908       0.60627824       0.89082718      -0.66608596
H        0.85485768      -0.10103213       1.66994977       0.03664549       0.04265048       0.01037804
C        0.31831759       0.49814430      -0.15661292      -0.72716939      -0.91630781       0.74278438
C       -0.96531028       0.09022651      -0.83965904      -1.27091157      -1.32642627       1.50368142
O        0.60643798      -0.53484958       0.83920366      -0.21436994       0.57757723      -0.27279770
9
Properties=species:S:1:pos:R:3:forces:R:3 energy=-46.90565490722656 pbc="F F F"
H        0.58942014       0.56850415       1.45765340      -0.21264660       0.98299551      -0.58034086
H        0.19084583      -0.97177398       1.11895347      -0.58219695       0.27095634      -0.37394464
H       -1.91754603      -0.63864160       0.32633665      -0.16983336       0.67848551      -0.12031463
H       -1.74687612       1.20677948       0.04724915      -0.59086615       0.92785931       0.32481250
H       -0.99806798       0.04567495      -1.06048417      -0.73871911       0.09432657      -0.01759821
H        1.44465923       0.56652415      -0.77008480       0.37085629       0.73118055      -0.32072821
C        0.14530499       0.03149213       0.59344125      -0.34456289      -2.00043964      -0.04634121
C       -1.32273293       0.23833993      -0.01808530       2.39287710      -1.68539107       0.30263537
O        1.03739238      -0.25161076      -0.50245267      -0.12490857       0.00002700       0.83181995
9
Properties=species:S:1:pos:R:3:forces:R:3 energy=-47.149757385253906 pbc="F F F"
H       -1.43890595      -0.04261626       0.04499329       0.04066995      -0.49370921      -0.27525544
H       -0.27171803      -0.73808193      -1.24139941      -0.35981679       0.49290195      -0.15230259
H       -0.74988008       1.96914649      -0.40386763      -0.08328189       0.18226106      -0.21995839
H        0.84527570       1.63080645       0.40630284      -1.13738799      -0.67528522      -0.52275312
H        0.72931486       1.31501126      -1.24821329       0.19844759       0.42786574      -0.91258556
H       -0.25795770      -1.04518569       1.39416111       0.31866896      -0.08483954      -0.08314708
C       -0.37672150      -0.16038448      -0.29537192      -0.62212551      -0.47181401       0.31178525
C        0.07656428       1.25944448      -0.39901713       1.70030689       0.44948637       1.15598035
O        0.29732707      -1.01976323       0.58729970      -0.05548105       0.17313293       0.69823641
9
Properties=species:S:1:pos:R:3:forces:R:3 energy=-47.204166412353516 pbc="F F F"
H       -0.48917454      -1.31430459      -0.63255769      -0.17491813      -0.58333719      -0.19211042
H       -0.79148257       0.47502047      -1.23857665       0.66153896      -1.54084659       0.79557568
H       -1.98997390       0.15442517       1.07170773       0.07490247      -0.13593221      -0.56253058
H       -0.46969858      -0.22659287       1.73313308       0.33432221      -0.25758106       0.35943753
H       -0.69232571       1.32907271       0.98433238       0.06315497       0.05910790      -0.14299431
H        1.41693759       0.47579589       0.31310838      -0.44587201      -0.22561936      -0.25627959
C       -0.27858835      -0.28003755      -0.43222728      -1.33291245       2.92166901      -0.46262366
C       -0.90491611       0.25323355       0.85648638      -0.06376570      -0.10706693       0.39727479
O        1.07837689      -0.03625684      -0.45904917       0.88354957      -0.13039348       0.06425041
9
Properties=species:S:1:pos:R:3:forces:R:3 energy=-47.19995880126953 pbc="F F F"
H       -0.57660764      -1.28615212      -0.67026657       0.25592262       0.79383659       0.08054515
H       -0.75700259       0.52706623      -1.19368887       0.55252659      -0.84611136       0.54819971
H       -2.05342436       0.33616307       0.81875616       0.65619618      -0.30530715      -0.26196101
H       -0.80510265      -0.44272026       1.68974471       0.59238493      -1.04403830       1.43021822
H       -0.61162323       1.22955155       1.03502202       0.30254379       0.25135663       0.51137406
H        1.21938944       0.41082615      -1.21379507       0.71821272       0.44068474      -0.76459414
C       -0.29376757      -0.20132971      -0.40779039      -0.58986712      -0.28681025      -0.63449502
C       -0.92128670       0.19647111       0.88363361      -1.39268637       1.34399295      -1.33365595
O        1.13788557      -0.04525437      -0.38655707      -1.09523332      -0.34760380       0.42436922
9
Properties=species:S:1:pos:R:3:forces:R:3 energy=-47.14588928222656 pbc="F F F"
H       -1.45666134       0.27539563      -0.23977017      -0.87549937      -0.06331618       0.04082677
H       -0.18851714      -0.13814463      -1.42816246      -0.15445071       0.19187979      -0.35898399
H        1.37903249       0.85525727      -0.02389291       1.68472493       0.09027391      -0.24291188
H        0.14404508       2.16390276      -0.55387473       0.53019130      -1.18077135       0.45660615
H        0.29274240       1.62288308       1.07114100      -0.34335661      -0.18646105       0.78816384
H        0.31242073      -1.01058650       1.09121060       0.35198525       0.19774084       1.10702014
C       -0.40961096       0.09678593      -0.38593292       0.26961887      -1.82924891       0.45257533
C        0.39610326       1.21004820       0.07991633      -0.71952200       1.94190872      -0.95232344
O       -0.02035437      -1.21855426       0.23497656      -0.74369162       0.83799386      -1.29097283
9
Properties=species:S:1:pos:R:3:forces:R:3 energy=-47.0339469909668 pbc="F F F"
H       -1.40103173      -0.13505770      -0.41215083      -2.12027884      -0.36155492       0.66903877
H       -0.27410343      -0.61390245      -1.43780744       1.08997977      -0.75878048      -1.12401068
H       -0.38000351       1.89837229      -1.01944435      -0.00839195      -0.49326748       0.48040673
H        0.02660654       1.71996737       0.73190868       0.10080025      -0.86576194      -0.68786645
H        1.11514616       1.17495286      -0.68345934       0.85592180       0.34269357       0.38511109
H        0.25925905      -1.81175506       0.55349338      -0.03922756      -0.55727541      -0.04748613
C       -0.36176115      -0.23418257      -0.45732576       0.63222837       1.67304909       2.41582513
C        0.11360337       1.19645298      -0.27366450      -0.25091898       1.09148824      -1.28950596
O        0.22743806      -0.86311722       0.69159895      -0.26011282      -0.07059073      -0.80151224
9
Properties=species:S:1:pos:R:3:forces:R:3 energy=-46.94525146484375 pbc="F F F"
H        0.12549745      -0.81275684       1.31667602       0.21883108       0.03854056      -0.26385742
H       -0.43211240      -1.28015578      -0.37668005      -0.27359089      -0.36253113       0.55344397
H       -1.95687532      -0.12698744       0.68508166       0.30488816       1.37084901       0.00023067
H       -1.00999308       1.56854260       0.69893193       0.18898231      -0.90263683       0.00739753
H       -1.39264739       0.59538698      -0.77898324      -0.28296739       0.62601554      -0.59962487
H        1.89682686      -0.56092387      -0.39668989      -0.45040202      -0.20095044       0.32402122
C       -0.11985849      -0.45706087       0.29021525       4.24768829      -2.04815269      -0.95326620
C       -1.10381448       0.53410500       0.26175055      -3.36275530       1.00513637       0.24839836
O        1.09300745      -0.01906781      -0.48670262      -0.59067416       0.47372994       0.68325675
9
Properties=species:S:1:pos:R:3:forces:R:3 energy=-47.12504577636719 pbc="F F F"
H       -0.55100876       0.46864763       1.32674229       0.37712759       0.01714436       0.38129276
H       -1.48063993      -0.09782450       0.03319797       0.10020024      -0.40793329       0.10586783
H        1.00153518       0.78096861      -0.87854838       1.56605113      -0.31995985      -0.93662167
H       -0.58962625       1.22183335      -1.59806418       0.40750456      -0.04735067       0.56925642
H        0.26847246       2.13686275      -0.26591361      -0.37001598       0.15777272       0.21967870
H        0.52794570      -1.48228931      -0.44396493       0.26928213      -0.63810062      -2.04393911
C       -0.40748036       0.06664690       0.32158297      -1.67750311       0.63939685      -0.53723276
C        0.04143735       1.14246356      -0.66572517      -0.61406016      -0.00142771      -0.04065278
O        0.32659316      -1.09854233       0.37341666      -0.05858669       0.60045803       2.28235054
9
Properties=species:S:1:pos:R:3:forces:R:3 energy=-47.04206085205078 pbc="F F F"
H       -1.29843020       0.09349653      -0.88897395       0.86135787       0.03738724       0.27824298
H       -0.20631646       1.42827153      -0.37998226      -0.13316914      -0.00602870       0.20137152
H       -1.28088272       0.61956853       1.67600596      -1.34550309       0.78552830       0.71174395
H       -0.67936277      -1.18203092       1.55888116      -0.20561108       1.56050682      -0.59974742
H        0.42137581       0.27026337       1.64237225      -0.49463505      -0.24529743       0.33813387
H        1.50165856      -0.25831732      -0.31734824       1.19255841       0.03697720       1.05343437
C       -0.35239583       0.33550456      -0.29272151      -0.51193291      -0.91904914       0.29169732
C       -0.59609610      -0.05046819       1.27183282       2.92592478      -1.43374670      -1.90166247
O        0.80910885      -0.27525795      -0.94234145      -2.28898978       0.18372217      -0.37321407
9
Properties=species:S:1:pos:R:3:forces:R:3 energy=-47.01756286621094 pbc="F F F"
H       -0.75846219      -0.56169814      -1.22063255      -0.24546742       0.06146777       0.99402869
H       -0.30803147       1.06693804      -1.12660706       0.27062416      -0.31400943       0.84612656
H       -2.03356838       0.50760913       0.84039348      -0.33696032       0.25416711      -0.17148267
H       -0.88343853      -0.55045128       1.44501543       0.26220125      -2.62743688       1.42046714
H       -0.50618756       1.05407560       1.55373943       0.58105028       1.06081283       0.46693316
H        1.78728974       0.22241502      -0.66641653      -0.60534966      -0.28734529       0.19436246
C       -0.29512057       0.13737315      -0.46254405       1.07730699      -0.06679744      -0.84186125
C       -0.96674252       0.32626507       0.94126081       0.13232158       0.79840899      -3.02039766
O        1.11746168      -0.45769385      -0.41137609      -1.13572693       1.12073219       0.11182338
9
Properties=species:S:1:pos:R:3:forces:R:3 energy=-46.9160270690918 pbc="F F F"
H       -0.16238759      -0.29204977      -1.54135478      -0.51365459      -0.15845644       1.05051363
H        0.01395808       1.27701700      -0.97584826      -0.59703207      -0.20643902       0.95096898
H       -1.13453579       0.40057608       1.57855725       0.88616395      -0.08228956      -0.77600592
H       -2.24132657       0.38641247       0.39500764       0.30899021      -0.45562178      -0.77395278
H       -1.37281930      -1.13865924       0.88505614       0.21960533       0.04796283      -0.72179878
H        1.64828968       0.41912824       0.62695152      -1.02680945      -0.64492917      -1.01447523
C       -0.12391654       0.24248832      -0.53370512       1.15757334      -0.46238196       0.26215851
C       -1.23675740      -0.08723224       0.55098224      -0.08314681       1.18930197       0.48286748
O        1.22606266      -0.18294607      -0.07397582      -0.35168979       0.77285314       0.53972387
9
Properties=species:S:1:pos:R:3:forces:R:3 energy=-47.00814437866211 pbc="F F F"
H        1.18522012       0.75022686      -0.56905675       0.16999772      -0.81293124       0.70013213
H        0.36007804       0.98931378       0.97492576      -0.14797467       0.70815629       0.33165097
H       -1.60870159      -0.21907967      -0.95537585       1.09013581       1.01930237       0.44446722
H       -1.40063167       1.47192204      -0.35662329      -0.09032832       0.22848855      -0.35628960
H       -0.53552669       0.83509481      -1.82974923       0.39369801       0.53227389      -1.03228092
H        1.20629954      -0.87749004       1.28879678      -1.48887849      -0.41555792      -1.12453508
C        0.35854247       0.33911768       0.11066212      -0.21469128       0.96857345      -1.27924562
C       -0.83230513       0.66430324      -0.83230567      -1.50683010      -2.01800680       1.55508864
O        0.40556428      -0.93920463       0.63289976       1.79487085      -0.21029854       0.76101220
9
Properties=species:S:1:pos:R:3:forces:R:3 energy=-47.233184814453125 pbc="F F F"
H       -0.96895874      -1.15301418      -0.42260045       0.28957975       1.13780785       0.25169742
H       -0.82961071       0.68455696      -0.88079149      -0.86508143       0.06940053      -0.58444005
H       -1.60691571       0.60881203       1.21545899       0.55615598       0.04378189       0.19929834
H       -0.31842718      -0.49409530       1.77308285       0.14492294       0.74525058      -0.00633891
H        0.06271647       1.27020657       1.35827374       0.43688443       0.39179873      -0.04848490
H        0.94542575      -0.75902021      -1.54296327      -0.17160100       0.44374117       0.65906596
C       -0.43329865      -0.12509464      -0.27172554      -0.13641012      -0.29703707      -1.01458323
C       -0.50242823       0.39572436       1.09704947      -1.46701789      -1.68013585       1.06063533
O        0.87347472      -0.21317428      -0.71409506       1.21256745      -0.85460794      -0.51684964
9
Properties=species:S:1:pos:R:3:forces:R:3 energy=-47.2194709777832 pbc="F F F"
H       -0.29628962      -0.32103932      -1.50281620       0.10760069       0.06147806       0.33143497
H       -0.24729978       1.33316052      -0.77163368       0.40184641      -0.73168433       0.09311426
H       -0.87933195       0.41591176       1.54130971      -0.12675485       0.17673358      -0.98626274
H       -2.11039352       0.32653284       0.27006689      -1.03257346       0.21655408      -0.27642348
H       -1.22548616      -1.06085610       0.99257886      -0.15007110      -1.07923079      -0.47761047
H        1.35120046       0.16748156       0.78340483       0.02662679       0.54102308       1.16808605
C       -0.09294194       0.21072149      -0.53944302      -0.98578238       0.36646175       0.68405068
C       -1.17567503      -0.08729610       0.54222989       1.63577223       0.93111753       1.05451274
O        1.16695869      -0.14700343      -0.08480363       0.12333590      -0.48245293      -1.59090197
9
Properties=species:S:1:pos:R:3:forces:R:3 energy=-46.77535629272461 pbc="F F F"
H        0.85842335       1.22324252      -0.64460319      -0.65953147      -0.27545920       0.01118246
H       -0.56571144       1.37254965       0.55200738       0.69917715      -0.30108991      -0.11876820
H       -1.64957333       0.22926788      -1.49773276       1.79375815      -0.17702150      -0.57872570
H       -0.22974102      -1.09378541      -1.14870799      -1.01123238      -0.12832458      -0.36424512
H       -1.84406853      -0.55146861      -0.20795874       1.59566319      -0.73173481       0.71118879
H        0.94222301      -1.13518190       0.39994305      -0.06223693      -0.52553040      -0.68126124
C        0.06361980       0.66513759      -0.06713187      -0.25227803      -1.60174286       0.79612118
C       -0.89972144      -0.28371578      -0.78908390      -1.97679114       1.57494426      -0.60114193
O        0.78436536      -0.28923795       0.80321926      -0.12652844       2.16595912       0.82564974
9
Properties=species:S:1:pos:R:3:forces:R:3 energy=-47.269168853759766 pbc="F F F"
H        0.42029527       0.22366452       1.44236302       0.16027340      -0.19735354      -0.76536763
H       -0.24677067      -1.20701206       0.73995024       0.10174488      -1.13140023       0.00613885
H       -1.98016524       0.12836680       0.95041645       0.47601980       0.44793028      -0.74886549
H       -1.00314903       1.55975533       0.29201344      -0.41433185       0.18740721      -0.15051031
H       -1.61402631       0.30245927      -0.88922310       0.07336099       0.04948910       0.48105669
H        1.89227045      -0.00039372      -0.26726195       0.74813426       0.26106918       0.41768381
C        0.06867869      -0.22905464       0.44813383       0.01710284       0.72060347       0.52230531
C       -1.24597704       0.49773687       0.15119752       0.24062502      -0.26400220       0.16166097
O        1.04321575      -0.26522294      -0.59281331      -1.40292943      -0.07374334       0.07589774
9
Properties=species:S:1:pos:R:3:forces:R:3 energy=-47.1665153503418 pbc="F F F"
H        0.57753938      -0.26042020       1.41340101      -0.13506441      -0.17405252      -0.55319297
H       -0.27683425      -1.50087607       0.48117980      -0.04213940      -0.09603213      -0.37141648
H       -1.86274266       0.88068789       1.09261739       1.02176690      -0.79215980      -0.21526681
H       -0.58468473       1.52003384       0.06669663       0.20095575       0.44228199      -0.15419494
H       -1.74729121       0.32289174      -0.61050183       0.86160016       0.32204047       0.94352686
H        1.48275793      -0.91336626      -0.67675930       0.04192969       0.66145664      -0.42673266
C        0.06372580      -0.45638248       0.41100752      -0.71091044       1.68887162       1.44876766
C       -1.07560325       0.58837265       0.31051540      -1.64695752      -0.53582704      -0.91330516
O        0.91145670      -0.10226297      -0.65294045       0.40881926      -1.51657903       0.24181446
9
Properties=species:S:1:pos:R:3:forces:R:3 energy=-47.10822677612305 pbc="F F F"
H       -0.25585398      -1.03632641       1.07314396      -0.07114439       0.40523839      -0.28596413
H       -0.77967870      -1.14611816      -0.56945521      -0.28743684      -0.01500363      -0.44823605
H       -1.97674453       0.80225354       0.71465719      -0.75795156      -0.41836268      -0.41911989
H       -0.64576894       1.70500934       1.01874352       0.50018930      -1.20484495      -0.41590106
H       -0.91359609       1.51285481      -0.62021315      -0.41932470       0.01339758      -0.77359819
H        1.16701567      -0.95816040      -1.11972165       0.25798899       0.55590153       0.67224252
C       -0.26523197      -0.46226433       0.09997404       0.99416602       0.59533876       1.19825935
C       -0.99919581       0.90011054       0.26352081       1.27742207       0.48058057       1.07753444
O        1.16362643      -0.38419241      -0.30419451      -1.49390900      -0.41224560      -0.60521698
9
Properties=species:S:1:pos:R:3:forces:R:3 energy=-47.097023010253906 pbc="F F F"
H        0.20445351      -1.53505337      -0.12321536      -0.18186741       0.26220787       0.34605318