2
Lattice="-1.400545955 1.400545955 -1.980671676 1.400546388 -1.400546388 -1.980671063 -2.823160586 -2.823160586 0.0" Properties=species:S:1:pos:R:3:REF_forces:R:3 REF_energy=-7182.088604233521 REF_stress="6.151656021836326e-05 6.151656021836326e-05 2.1117625149587388e-05 -0.0 0.0 3.9480777453576426e-05" REF_cohesion_energy=-8.50278920872097 pbc="T T T"
Pd       0.00000000       0.00000000       0.00000000       0.00000000       0.00000000       0.00000000
Au      -1.41158008      -1.41158051      -1.98067137       0.00000000       0.00000000       0.00000000
3
Lattice="3.508088888 -0.0 -0.0 -0.0 3.508088888 -0.0 -1.754044444 -1.754044444 6.186502042" Properties=species:S:1:pos:R:3:REF_forces:R:3 REF_energy=-8771.564677314964 REF_stress="-0.0009273391913514462 -0.0009273391913514462 0.00046642406852132143 0.0 0.0 0.0" REF_cohesion_energy=-12.043686200664524 pbc="T T T"
Bi       0.00000000       0.00000000       0.25866983      -0.00000000      -0.00000000      -0.04044577
Bi       0.00000000       0.00000000       3.86566512       0.00000000       0.00000000       0.04044577
Au       1.75404444       1.75404444       2.06216748      -0.00000000      -0.00000000      -0.00000000
3
Lattice="2.948627215 -2.948627215 2.948627215 2.772193717 2.772193717 0.0 -2.772193717 0.0 2.772193717" Properties=species:S:1:pos:R:3:REF_forces:R:3 REF_energy=-12178.069394066632 REF_stress="0.00020383099057427826 0.00020383099057427826 0.00020383099057427826 -5.2334984066368754e-05 5.2334984066368754e-05 -5.2334984066368754e-05" REF_cohesion_energy=-4.805864881731395 pbc="T T T"
Hg       0.04385892      -0.04385892       0.04385892      -0.00848490       0.00848490      -0.00848490
Hg       0.99782901      -0.99782901       3.77002272       0.00848490      -0.00848490       0.00848490
Au       1.90694082       0.86525290       1.90694082       0.00000000       0.00000000       0.00000000
2
Lattice="-1.981534389 1.981534389 -1.398758262 1.981534389 -1.981534389 -1.398758262 -3.410003999 -3.410003999 0.0" Properties=species:S:1:pos:R:3:REF_forces:R:3 REF_energy=-4326.574182538087 REF_stress="-8.263418536795065e-05 -8.263418536795065e-05 3.2135516531980806e-05 -0.0 0.0 1.3772364227991774e-05" REF_cohesion_energy=-7.02626840245739 pbc="T T T"
Au      -1.70500262      -1.70500262      -1.39875764       0.00000000       0.00000000       0.00000000
Se      -0.00000062      -0.00000062       0.00000062       0.00000000       0.00000000       0.00000000
2
Lattice="-1.676833813 1.676833813 -2.371400107 1.676833294 -1.676833294 -2.371400841 -2.371399132 -2.371399132 -0.0" Properties=species:S:1:pos:R:3:REF_forces:R:3 REF_energy=-4988.675502942869 REF_stress="0.0003544088394669884 0.0003544088394669884 0.0003544088394669884 0.0 -0.0 -0.0" REF_cohesion_energy=-10.364264881468443 pbc="T T T"
Sc       0.00000000       0.00000000       0.00000000      -0.00000000       0.00000000       0.00000000
Au      -1.18569983      -1.18569931      -2.37140047       0.00000000      -0.00000000      -0.00000000
3
Lattice="-1.771150531 1.771150531 -2.504235872 1.771149983 -1.771149983 -2.504236647 -3.53357772 -3.533578268 2.504236259" Properties=species:S:1:pos:R:3:REF_forces:R:3 REF_energy=-17384.26760797273 REF_stress="-0.00032227332293500755 -0.00032227332293500755 -0.00026718386602304044 -0.0 0.0 1.1936048997592873e-05" REF_cohesion_energy=-15.714478795831383 pbc="T T T"
Pr      -1.03621011      -1.03620957      -2.50423555       0.00487584       0.00487584      -0.00000000
Pr      -3.67522693      -3.67522638      -2.50423555      -0.00487584      -0.00487584       0.00000000
Au      -2.35571825      -2.35571825       0.00000071       0.00000000       0.00000000       0.00000000
3
Lattice="-2.08662667 2.08662667 -1.651669784 2.08662667 -2.08662667 -1.651669784 -4.490080859 -4.490080859 1.651669784" Properties=species:S:1:pos:R:3:REF_forces:R:3 REF_energy=-8026.404967740583 REF_stress="0.00011201522905433311 0.00011201522905433311 6.059840260316382e-05 0.0 -0.0 -5.14168264511693e-05" REF_cohesion_energy=-8.777034964093218 pbc="T T T"
Au      -2.97119439      -2.97119439       0.00000000      -0.00418216      -0.00418216       0.00000000
Au      -1.51888647      -1.51888647      -1.65166978       0.00418216       0.00418216      -0.00000000
Br       0.00000000       0.00000000      -3.30333957       0.00000000       0.00000000       0.00000000
3
Lattice="2.631825262 -0.0 -0.0 -0.0 2.631825262 -0.0 -1.315912631 -1.315912631 10.193870165" Properties=species:S:1:pos:R:3:REF_forces:R:3 REF_energy=-5388.990005962947 REF_stress="-0.0003020738554006196 -0.0003020738554006196 -0.00011109707143913366 0.0 0.0 0.0" REF_cohesion_energy=-3.0559971878474244 pbc="T T T"
Au       0.00000000       0.00000000       0.00000000      -0.00000000      -0.00000000      -0.00000000
Ne       0.00000000       0.00000000       6.51835238       0.00000000       0.00000000       0.00177586
Ne       1.31591263       1.31591263       3.67551778      -0.00000000      -0.00000000      -0.00177586
3
Lattice="-1.414507471 1.414507471 -2.009679444 1.414507031 -1.414507031 -2.009680063 -4.6246324 -4.62463284 2.009679753" Properties=species:S:1:pos:R:3:REF_forces:R:3 REF_energy=-7722.740601621338 REF_stress="8.630681582874845e-05 8.630681582874845e-05 -0.00018914046873108706 0.0 -0.0 -8.5388658213549e-05" REF_cohesion_energy=-12.311910057377645 pbc="T T T"
As       0.00000000       0.00000000       0.00000000       0.00000000       0.00000000       0.00000000
Au      -3.07460066      -3.07460066       0.00000000       0.00110146       0.00110146      -0.00000000
Au      -1.55003218      -1.55003174      -2.00967975      -0.00110146      -0.00110146      -0.00000000
3
Lattice="2.742880597 0.0 0.0 -0.0 2.742880597 0.0 -1.371440299 -1.371440299 6.318625358" Properties=species:S:1:pos:R:3:REF_forces:R:3 REF_energy=-10176.091231519882 REF_stress="-0.0001726136316574969 -0.0001726136316574969 -0.0002075036210350761 0.0 0.0 -0.0" REF_cohesion_energy=-17.935460495680672 pbc="T T T"
Os       1.37144030       1.37144030       2.10620827       0.00000000       0.00000000      -0.00000000
Au       0.00000000       0.00000000       0.06850941       0.00000000       0.00000000      -0.00551167
Au       0.00000000       0.00000000       4.14390714      -0.00000000      -0.00000000       0.00551167
2
Lattice="-1.39544386 1.39544386 -1.973395002 1.395444292 -1.395444292 -1.973394391 -2.572325757 -2.572325757 0.0" Properties=species:S:1:pos:R:3:REF_forces:R:3 REF_energy=-6601.084108827186 REF_stress="-0.00011752417474552982 -0.00011752417474552982 -0.00014139627274071558 -0.0 0.0 2.2953940379986292e-05" REF_cohesion_energy=-8.461308114886378 pbc="T T T"
Cu      -3.96777081      -1.17688309      -1.97339444       0.00000000      -0.00000000      -0.00000000
Au      -1.28616386      -1.28616429      -1.97339414      -0.00000000       0.00000000       0.00000000
3
Lattice="-2.396714105 2.396714105 -1.549723055 2.396714105 -2.396714105 -1.549723055 -2.753650717 -2.753650717 1.549723055" Properties=species:S:1:pos:R:3:REF_forces:R:3 REF_energy=-3909.0263736471857 REF_stress="-3.1217358916781356e-05 -3.1217358916781356e-05 0.0002607567627166443 0.0 0.0 -0.00010742444097833584" REF_cohesion_energy=-15.898412559005465 pbc="T T T"
B       -0.62442648      -0.62442648      -1.54972305      -0.00420787      -0.00420787       0.00000000
B       -0.29345560      -0.29345560       0.00000000       0.00420787       0.00420787      -0.00000000
Au      -1.83576640      -1.83576640       0.00000000       0.00000000       0.00000000       0.00000000
3
Lattice="4.213917086 -4.213917086 4.213917086 1.803492677 1.803492677 -0.0 -1.803492677 -0.0 1.803492677" Properties=species:S:1:pos:R:3:REF_forces:R:3 REF_energy=-4230.184723755784 REF_stress="6.427103306396162e-06 6.427103306396162e-06 6.427103306396162e-06 -8.263418536795066e-06 8.263418536795066e-06 -8.263418536795066e-06" REF_cohesion_energy=-22.12649253622385 pbc="T T T"
Au       0.00000000       0.00000000       0.00000000      -0.00000000       0.00000000       0.00000000
C        1.50579097      -1.50579097       3.30928364       0.00011056      -0.00011056       0.00011056
C        2.70812612      -0.90463344       2.70812612      -0.00011056       0.00011056      -0.00011056
3
Lattice="2.973303571 -2.973303571 2.973303571 3.267706303 3.267706303 0.0 -3.267706303 -0.0 3.267706303" Properties=species:S:1:pos:R:3:REF_forces:R:3 REF_energy=-8332.122967748292 REF_stress="-1.5608679458390678e-05 -1.5608679458390678e-05 -1.5608679458390678e-05 -1.8363152303989035e-06 1.8363152303989035e-06 -1.8363152303989035e-06" REF_cohesion_energy=-9.05189770681136 pbc="T T T"
Cs       2.08033714       1.18736916       2.08033714       0.00000000       0.00000000       0.00000000
Au       2.47774289      -2.47774289       2.47774289       0.00003162      -0.00003162       0.00003162
Au       1.38852866      -1.38852866       4.65623496      -0.00003162       0.00003162      -0.00003162
3
Lattice="2.87547466 0.0 -0.0 0.0 2.87547466 -0.0 -1.43773733 -1.43773733 4.877103388" Properties=species:S:1:pos:R:3:REF_forces:R:3 REF_energy=-7746.113025628427 REF_stress="0.00012578759328232489 0.00012578759328232489 0.00023688466472145852 0.0 0.0 0.0" REF_cohesion_energy=-12.317230131046927 pbc="T T T"
Au       0.00000000       0.00000000       0.20144225       0.00000000       0.00000000       0.00329924
Au       0.00000000       0.00000000       3.04996059      -0.00000000      -0.00000000      -0.00329924
N        1.43773733       1.43773733       1.62570142      -0.00000000      -0.00000000      -0.00000000
2
Lattice="3.381437415 0.0 0.0 0.0 3.381437415 0.0 0.0 0.0 3.381437415" Properties=species:S:1:pos:R:3:REF_forces:R:3 REF_energy=-5087.784707977331 REF_stress="3.305367414718026e-05 3.305367414718026e-05 3.305367414718026e-05 -0.0 -0.0 -0.0" REF_cohesion_energy=-12.569228296631081 pbc="T T T"
Zr       1.69071871       1.69071871       1.69071871       0.00000000       0.00000000       0.00000000
Au       0.00000000       0.00000000       0.00000000       0.00000000       0.00000000       0.00000000
3
Lattice="4.153574898 -0.0 -0.0 0.0 4.153574898 -0.0 -2.076787449 -2.076787449 8.256367093" Properties=species:S:1:pos:R:3:REF_forces:R:3 REF_energy=-5069.226914255837 REF_stress="6.794366352475943e-05 6.794366352475943e-05 0.00014690521843191228 0.0 0.0 0.0" REF_cohesion_energy=-6.058971361697331 pbc="T T T"
Rb       0.00000000       0.00000000       6.33550869      -0.00000000      -0.00000000      -0.00720423
Rb       2.07678745       2.07678745       1.92085840       0.00000000       0.00000000       0.00720423
Au       0.00000000       0.00000000       0.00000000       0.00000000       0.00000000       0.00000000
3
Lattice="-1.393672175 1.393672175 -1.972912733 1.393671743 -1.393671743 -1.972913343 -4.256641731 -4.256642162 1.972913038" Properties=species:S:1:pos:R:3:REF_forces:R:3 REF_energy=-9467.394310602522 REF_stress="3.1217358916781356e-05 3.1217358916781356e-05 1.652683707359013e-05 0.0 -0.0 -1.652683707359013e-05" REF_cohesion_energy=-17.517902970621435 pbc="T T T"
Pt      -1.39051010      -1.39050967      -1.97291248       0.00400012       0.00400012      -0.00000000
Pt      -0.02837133      -0.02837133       0.00000056      -0.00400012      -0.00400012      -0.00000000
Au      -2.83776158      -2.83776158       0.00000056       0.00000000      -0.00000000       0.00000000
3
Lattice="1.525484773 -1.525484773 1.525484773 3.234405675 3.234405675 -0.0 -3.234405675 -0.0 3.234405675" Properties=species:S:1:pos:R:3:REF_forces:R:3 REF_energy=-10039.429163532492 REF_stress="-0.00019464941442228376 -0.00019464941442228376 -0.00019464941442228376 -0.00015608679458390678 0.00015608679458390678 -0.00015608679458390678" REF_cohesion_energy=-15.8864943809931 pbc="T T T"
Ru       1.58662996       1.64777462       1.58662996       0.00000000       0.00000000       0.00000000
Au       1.40874600       1.82565858       4.64315168      -0.00004834       0.00004834      -0.00004834
Au       0.05559302      -0.05559411       3.28999869       0.00004834      -0.00004834       0.00004834
3
Lattice="2.642182334 -0.0 -0.0 -0.0 2.642182334 0.0 -1.321091167 -1.321091167 5.312702668" Properties=species:S:1:pos:R:3:REF_forces:R:3 REF_energy=-11853.410785010874 REF_stress="-0.0002791199150206333 -0.0002791199150206333 -0.00015149600650790954 -0.0 -0.0 -0.0" REF_cohesion_energy=-18.21678757697373 pbc="T T T"
Co       0.00000000       0.00000000       3.35394350      -0.00000000      -0.00000000       0.00300819
Co       1.32109117       1.32109117       1.95875917       0.00000000       0.00000000      -0.00300819
Au       0.00000000       0.00000000       0.00000000       0.00000000       0.00000000       0.00000000
2
Lattice="-1.772530417 1.772530417 -1.349786244 1.772530417 -1.772530417 -1.349786244 -3.427363525 -3.427363525 0.0" Properties=species:S:1:pos:R:3:REF_forces:R:3 REF_energy=-3891.7882068708054 REF_stress="0.00025708413225584645 0.00025708413225584645 -0.00017904073496389307 0.0 -0.0 -0.0002644293931774421" REF_cohesion_energy=-9.014492336755211 pbc="T T T"
Si       0.00000000       0.00000000       0.00000000       0.00000000       0.00000000       0.00000000
Au      -1.71368176      -1.71368176      -1.34978624       0.00000000       0.00000000       0.00000000
3
Lattice="1.531383758 -1.531383758 1.531383758 3.37748714 3.37748714 -0.0 -3.37748714 0.0 3.37748714" Properties=species:S:1:pos:R:3:REF_forces:R:3 REF_energy=-7594.82072513234 REF_stress="-6.427103306396162e-06 -6.427103306396162e-06 -6.427103306396162e-06 -4.6826038375172033e-05 4.6826038375172033e-05 -4.6826038375172033e-05" REF_cohesion_energy=-23.886061438040088 pbc="T T T"
Ta      -0.02886252       0.02886252       3.34862382      -0.00098190       0.00098190      -0.00098190
Ta       1.56024681       1.81724033       1.56024602       0.00098190      -0.00098190       0.00098190
Au       0.00000027      -0.00000027      -0.00000053      -0.00000000       0.00000000       0.00000000
3
Lattice="3.301894148 0.0 0.0 -0.0 3.301894148 -0.0 -1.650947074 -1.650947074 4.109383306" Properties=species:S:1:pos:R:3:REF_forces:R:3 REF_energy=-16289.684549300955 REF_stress="0.0002451480832582536 0.0002451480832582536 9.640654959594242e-05 0.0 0.0 -0.0" REF_cohesion_energy=-7.631054012455934 pbc="T T T"
Zn       0.00000000       0.00000000       2.72165649      -0.00000000       0.00000000       0.00135549
Zn       1.65094707       1.65094707       1.38772682       0.00000000      -0.00000000      -0.00135549
Au       0.00000000       3.30189415       0.00000000       0.00000000      -0.00000000      -0.00000000
2
Lattice="-2.197198806 2.197198806 -1.404699097 2.197198806 -2.197198806 -1.404699097 -2.377651596 -2.377651596 -0.0" Properties=species:S:1:pos:R:3:REF_forces:R:3 REF_energy=-3822.60590738672 REF_stress="0.00024973887133425085 0.00024973887133425085 -2.2953940379986292e-05 0.0 -0.0 -0.00014323258797111448" REF_cohesion_energy=-8.983541516579862 pbc="T T T"
B       -2.19719812       2.19719812      -1.40470010       0.00000000       0.00000000       0.00000000
Au      -1.18882511      -1.18882648      -1.40470010       0.00000000       0.00000000       0.00000000
3
Lattice="1.827627061 -1.827627061 1.827627061 3.35106492 3.35106492 -0.0 -3.35106492 0.0 3.35106492" Properties=species:S:1:pos:R:3:REF_forces:R:3 REF_energy=-14300.39441503897 REF_stress="-6.427103306396162e-06 -6.427103306396162e-06 -6.427103306396162e-06 2.2953940379986292e-05 -2.2953940379986292e-05 2.2953940379986292e-05" REF_cohesion_energy=-14.942694472369112 pbc="T T T"
Pr       1.72623075       1.62483381       1.72623075      -0.00000000      -0.00000000      -0.00000000
Au       1.52302285      -1.52302321       1.52302285      -0.00000077       0.00000077      -0.00000077
Au       0.40600079      -0.40600115       3.75706571       0.00000077      -0.00000077       0.00000077
2
Lattice="-1.75436255 1.75436255 -2.481019294 1.754362007 -1.754362007 -2.481020062 -2.481192768 -2.481192768 0.0" Properties=species:S:1:pos:R:3:REF_forces:R:3 REF_energy=-17378.769413982685 REF_stress="-1.3772364227991774e-05 -1.3772364227991774e-05 -0.0 -0.0 0.0 -8.263418536795066e-06" REF_cohesion_energy=-7.731309268583573 pbc="T T T"
Yb       0.00000000       0.00000000       0.00000000       0.00000000      -0.00000000       0.00000000
Au      -1.24059666      -1.24059611      -2.48101968       0.00000000      -0.00000000       0.00000000
2
Lattice="3.137442371 -0.0 -0.0 -0.0 3.137442371 -0.0 -0.0 -0.0 3.137442371" Properties=species:S:1:pos:R:3:REF_forces:R:3 REF_energy=-5930.719257547388 REF_stress="0.00027269281171423716 0.00027269281171423716 0.00027269281171423716 -0.0 -0.0 -0.0" REF_cohesion_energy=-13.712785927588811 pbc="T T T"
Tc       1.56872119       1.56872119       1.56872119       0.00000000       0.00000000       0.00000000
Au       0.00000000       0.00000000       0.00000000       0.00000000       0.00000000       0.00000000
2
Lattice="-1.756661736 1.756661736 -1.431277854 1.756661736 -1.756661736 -1.431277854 -5.230229094 -5.230229094 -0.0" Properties=species:S:1:pos:R:3:REF_forces:R:3 REF_energy=-4310.6165989969095 REF_stress="0.0002745291269446361 0.0002745291269446361 -2.7544728455983548e-06 -0.0 0.0 -0.0002855470183270295" REF_cohesion_energy=-2.7742391509191293 pbc="T T T"
Ar      -5.23023011      -5.23023011      -2.86255428       0.00000000       0.00000000       0.00000000
Au      -2.61511557      -2.61511557      -1.43127642       0.00000000       0.00000000      -0.00000000
2
Lattice="-1.678847591 1.678847591 -2.374248389 1.678847072 -1.678847072 -2.374249124 -2.374248691 -2.374248691 -0.0" Properties=species:S:1:pos:R:3:REF_forces:R:3 REF_energy=-5273.1615953792125 REF_stress="-5.14168264511693e-05 -5.14168264511693e-05 -5.14168264511693e-05 0.0 -0.0 -0.0" REF_cohesion_energy=-12.514930498512513 pbc="T T T"
Hf       0.00000000       0.00000000       0.00000000       0.00000000       0.00000000       0.00000000
Au      -1.18712461      -1.18712409      -2.37424876       0.00000000       0.00000000       0.00000000
3
Lattice="-1.643950659 1.643950659 -1.372018049 1.643950659 -1.643950659 -1.372018049 -5.110567242 -5.110567242 1.372018049" Properties=species:S:1:pos:R:3:REF_forces:R:3 REF_energy=-9139.373912488398 REF_stress="0.0001083425985935353 0.0001083425985935353 8.814313105914735e-05 0.0 0.0 6.427103306396161e-05" REF_cohesion_energy=-25.412682396297896 pbc="T T T"
Os      -1.61550125      -1.61550125      -1.37201887      -0.00412713      -0.00412713       0.00000000
Os      -0.08802080      -0.08802080      -0.00000082       0.00412713       0.00412713       0.00000000
Au      -3.40704465      -3.40704465      -0.00000082       0.00000000       0.00000000       0.00000000
3
Lattice="2.849246148 0.0 -0.0 0.0 2.849246148 -0.0 -1.424623074 -1.424623074 5.046413938" Properties=species:S:1:pos:R:3:REF_forces:R:3 REF_energy=-7560.323028738447 REF_stress="-0.00015516863696870734 -0.00015516863696870734 -9.089760390474572e-05 0.0 -0.0 -0.0" REF_cohesion_energy=-12.58389221620655 pbc="T T T"
B        1.42462307       1.42462307       1.68213817      -0.00000000      -0.00000000      -0.00000000
Au       0.00000000       0.00000000       0.28319293       0.00000000       0.00000000       0.00026945
Au       0.00000000       0.00000000       3.08108340      -0.00000000      -0.00000000      -0.00026945
3
Lattice="2.844032348 0.0 0.0 0.0 2.844032348 0.0 -1.422016174 -1.422016174 6.079709535" Properties=species:S:1:pos:R:3:REF_forces:R:3 REF_energy=-7666.251585484469 REF_stress="-0.00011660601713033036 -0.00011660601713033036 -7.528892444635504e-05 0.0 0.0 -0.0" REF_cohesion_energy=-12.578773373358672 pbc="T T T"
P        1.42201617       1.42201617       2.02657003       0.00000000       0.00000000       0.00000000
Au       0.00000000       0.00000000       0.07374765       0.00000000       0.00000000      -0.00134674
Au       0.00000000       0.00000000       3.97939241      -0.00000000      -0.00000000       0.00134674
3
Lattice="2.878520733 0.0 0.0 0.0 2.878520733 0.0 -1.439260367 -1.439260367 4.948191542" Properties=species:S:1:pos:R:3:REF_forces:R:3 REF_energy=-7717.868416265615 REF_stress="-6.059840260316382e-05 -6.059840260316382e-05 0.00023045756141506238 -0.0 -0.0 0.0" REF_cohesion_energy=-12.664144677685726 pbc="T T T"
Au       0.00000000       0.00000000       0.22815833       0.00000000       0.00000000      -0.00438579
Au       0.00000000       0.00000000       3.07063545      -0.00000000      -0.00000000       0.00438579
C        1.43926037       1.43926037       1.64939689      -0.00000000      -0.00000000       0.00000000
2
Lattice="-1.695001672 1.695001672 -2.397087386 1.695002196 -1.695002196 -2.397086644 -2.461618684 -2.461618684 -0.0" Properties=species:S:1:pos:R:3:REF_forces:R:3 REF_energy=-5702.952599219128 REF_stress="0.0002166851971870706 0.0002166851971870706 0.00012762390851272379 -0.0 0.0 8.079787013755175e-05" REF_cohesion_energy=-6.949878203227854 pbc="T T T"
In       0.00000000       0.00000000       0.00000000       0.00000000       0.00000000       0.00000000
Au      -1.23080908      -1.23080960      -2.39708701       0.00000000       0.00000000       0.00000000
2
Lattice="-1.344580111 1.344580111 -1.900187901 1.344580527 -1.344580527 -1.900187312 -2.897353497 -2.897353497 0.0" Properties=species:S:1:pos:R:3:REF_forces:R:3 REF_energy=-5710.571425198252 REF_stress="-0.00025616597464064704 -0.00025616597464064704 -0.0002644293931774421 0.0 -0.0 1.652683707359013e-05" REF_cohesion_energy=-12.643996201552 pbc="T T T"
V       -1.34458011       1.34458011      -1.90018736       0.00000000       0.00000000       0.00000000
Au      -1.44867654      -1.44867696      -1.90018707       0.00000000       0.00000000       0.00000000
3
Lattice="1.568814082 -1.568814082 1.568814082 3.133711513 3.133711513 -0.0 -3.133711513 -0.0 3.133711513" Properties=species:S:1:pos:R:3:REF_forces:R:3 REF_energy=-10625.790396998873 REF_stress="9.640654959594242e-05 9.640654959594242e-05 9.640654959594242e-05 0.00031217358916781356 -0.00031217358916781356 0.00031217358916781356" REF_cohesion_energy=-12.735537601372926 pbc="T T T"
Pd      -0.01726455       0.01726455       3.11644697       0.01042325      -0.01042325       0.01042325
Pd       1.58607863       1.54763288       1.58607863      -0.01042325       0.01042325      -0.01042325
Au      -3.13371151       0.00000000       3.13371151       0.00000000       0.00000000       0.00000000
2
Lattice="-1.411126494 1.411126494 -1.99563322 1.411126931 -1.411126931 -1.995632603 -2.5770752 -2.5770752 0.0" Properties=species:S:1:pos:R:3:REF_forces:R:3 REF_energy=-3934.5560175258693 REF_stress="-0.00011109707143913366 -0.00011109707143913366 -0.0001615957402751035 0.0 -0.0 4.958051122077039e-05" REF_cohesion_energy=-6.846751733659403 pbc="T T T"
Li      -3.98820103      -1.16594805      -1.99563266       0.00000000       0.00000000       0.00000000
Au      -1.28853672      -1.28853716      -1.99563235      -0.00000000       0.00000000       0.00000000
3
Lattice="3.420996263 -0.0 -0.0 -0.0 3.420996263 -0.0 -1.710498132 -1.710498132 4.161006423" Properties=species:S:1:pos:R:3:REF_forces:R:3 REF_energy=-7549.015265518718 REF_stress="9.365207675034407e-05 9.365207675034407e-05 0.0001918949415766854 -0.0 -0.0 0.0" REF_cohesion_energy=-5.729703713413073 pbc="T T T"
Au       0.00000000       0.00000000      -0.04193952      -0.00000000      -0.00000000      -0.00019206
Au       0.00000000       0.00000000       2.81594488       0.00000000       0.00000000       0.00019206
He       1.71049813       1.71049813       1.38700268       0.00000000       0.00000000       0.00000000
3
Lattice="-1.748267038 1.748267038 -2.471375556 1.748266498 -1.748266498 -2.471376321 -2.846904451 -2.846904992 2.471375939" Properties=species:S:1:pos:R:3:REF_forces:R:3 REF_energy=-7630.135817347267 REF_stress="-0.0003140099043982125 -0.0003140099043982125 3.856261983837697e-05 -0.0 0.0 0.00020291283295907883" REF_cohesion_energy=-13.245332161117403 pbc="T T T"
Si       0.00000000       0.00000000       0.00000000       0.00000000      -0.00000000      -0.00000000
Au      -1.89439078      -1.89439078       0.00000000       0.00111869       0.00111869      -0.00000000
Au      -0.95251421      -0.95251367      -2.47137594      -0.00111869      -0.00111869       0.00000000
2
Lattice="-2.077835352 2.077835352 -1.689452609 2.077835352 -2.077835352 -1.689452609 -4.621539625 -4.621539625 -0.0" Properties=species:S:1:pos:R:3:REF_forces:R:3 REF_energy=-6889.465361881558 REF_stress="-1.9281309919188485e-05 -1.9281309919188485e-05 -7.345260921595614e-06 -0.0 0.0 3.2135516531980806e-05" REF_cohesion_energy=-1.4745256946580412 pbc="T T T"
Au      -2.31077013      -2.31077013      -1.68945160       0.00000000       0.00000000       0.00000000
Xe      -0.00000032      -0.00000032       0.00000100       0.00000000       0.00000000       0.00000000
3
Lattice="3.717160746 -0.0 0.0 -0.0 3.717160746 0.0 -1.858580373 -1.858580373 4.59662956" Properties=species:S:1:pos:R:3:REF_forces:R:3 REF_energy=-14300.203299966097 REF_stress="7.804339729195339e-05 7.804339729195339e-05 3.9480777453576426e-05 0.0 -0.0 0.0" REF_cohesion_energy=-14.751579399495313 pbc="T T T"
Pr       1.85858037       1.85858037       1.53221011       0.00000000       0.00000000       0.00000000
Au       0.00000000       0.00000000      -0.02363124      -0.00000000      -0.00000000       0.00067363
Au       0.00000000       0.00000000       3.08805145       0.00000000       0.00000000      -0.00067363
3
Lattice="3.407358018 -0.0 -0.0 -0.0 3.407358018 -0.0 -1.703679009 -1.703679009 6.521719587" Properties=species:S:1:pos:R:3:REF_forces:R:3 REF_energy=-27124.488026224193 REF_stress="-1.1936048997592873e-05 -1.1936048997592873e-05 -1.0099733767193969e-05 -0.0 -0.0 -0.0" REF_cohesion_energy=-11.858633588093653 pbc="T T T"
Pb       0.00000000       0.00000000       0.30071838      -0.00000000      -0.00000000      -0.00019952
Pb       0.00000000       0.00000000       4.04709418       0.00000000       0.00000000       0.00019952
Au       1.70367901       1.70367901       2.17390628      -0.00000000      -0.00000000      -0.00000000
3
Lattice="3.772141471 0.0 0.0 -0.0 3.772141471 0.0 -1.886070735 -1.886070735 5.932722977" Properties=species:S:1:pos:R:3:REF_forces:R:3 REF_energy=-8141.698345917842 REF_stress="2.4790255610385195e-05 2.4790255610385195e-05 -1.1936048997592873e-05 0.0 0.0 -0.0" REF_cohesion_energy=-8.939218492621876 pbc="T T T"
Rb       1.88607074       1.88607074       1.97757420      -0.00000000      -0.00000000       0.00000000
Au       1.88607074       1.88607074       5.12471432      -0.00000000      -0.00000000       0.00015118
Au       0.00000000       0.00000000       4.76315705       0.00000000       0.00000000      -0.00015118
3
Lattice="-1.517908291 1.517908291 -1.634319494 1.517908291 -1.517908291 -1.634319494 -4.776884523 -4.776884523 1.634319494" Properties=species:S:1:pos:R:3:REF_forces:R:3 REF_energy=-7469.406448107323 REF_stress="-2.3872097995185745e-05 -2.3872097995185745e-05 0.00017444994688789583 0.0 0.0 0.0001726136316574969" REF_cohesion_energy=-26.26955335742332 pbc="T T T"
Mo      -1.55025734      -1.55025734      -1.63432058      -0.00561349      -0.00561349       0.00000000
Mo      -0.04203930      -0.04203930      -0.00000109       0.00561349       0.00561349      -0.00000000
Au      -3.18459058      -3.18459058      -0.00000109       0.00000000       0.00000000       0.00000000
3
Lattice="1.914595546 -1.914595546 1.914595546 3.293500406 3.293500406 -0.0 -3.293500406 -0.0 3.293500406" Properties=species:S:1:pos:R:3:REF_forces:R:3 REF_energy=-8739.021477071323 REF_stress="5.14168264511693e-05 5.14168264511693e-05 5.14168264511693e-05 -9.181576151994517e-06 9.181576151994517e-06 -9.181576151994517e-06" REF_cohesion_energy=-14.96137169672329 pbc="T T T"
Y        1.73603220       1.55746820       1.73603220       0.00000000       0.00000000       0.00000000
Au       1.59549645      -1.59549645       1.59549645       0.00000000      -0.00000000       0.00000000
Au       0.49766310      -0.49766310       3.79116351      -0.00000000       0.00000000      -0.00000000
3
Lattice="-1.813131844 1.813131844 -2.558842847 1.813131285 -1.813131285 -2.55884364 -3.014368997 -3.014369557 2.558843244" Properties=species:S:1:pos:R:3:REF_forces:R:3 REF_energy=-9441.267675220814 REF_stress="-6.518919067916107e-05 -6.518919067916107e-05 0.00019464941442228376 -0.0 0.0 0.00013405101181911995" REF_cohesion_energy=-11.148183552813862 pbc="T T T"
In      -1.20123734      -4.82750047      -0.00000040       0.00000000       0.00000000       0.00000000
Au      -2.00599538      -2.00599538       0.00000000      -0.00306861      -0.00306861       0.00000000
Au      -1.00837344      -1.00837288      -2.55884324       0.00306861       0.00306861      -0.00000000
3
Lattice="3.072822869 -0.0 0.0 -0.0 3.072822869 0.0 -1.536411434 -1.536411434 5.750572588" Properties=species:S:1:pos:R:3:REF_forces:R:3 REF_energy=-7927.061035540156 REF_stress="-0.00016435021312070184 -0.00016435021312070184 -0.0001579231098143057 0.0 0.0 -0.0" REF_cohesion_energy=-9.007556564535662 pbc="T T T"
Au       1.53641143       1.53641143       5.68504080      -0.00000000      -0.00000000       0.00215561
Au       0.00000000       0.00000000       3.89924684       0.00000000       0.00000000      -0.00215561
Cl       1.53641143       1.53641143       1.91685753      -0.00000000      -0.00000000       0.00000000
3
Lattice="3.495597348 -0.0 -0.0 -0.0 3.495597348 -0.0 -1.747798674 -1.747798674 4.026468205" Properties=species:S:1:pos:R:3:REF_forces:R:3 REF_energy=-7630.135810000193 REF_stress="-0.00024239361041265527 -0.00024239361041265527 -0.00011752417474552982 0.0 -0.0 0.0" REF_cohesion_energy=-13.24532481404276 pbc="T T T"
Si       1.74779867       1.74779867       1.34215618      -0.00000000      -0.00000000      -0.00000000