3
Lattice="3.319520950317383 -0.0 0.0 -0.0 3.319520950317383 0.0 -1.6597604751586914 -1.6597604751586914 5.175168991088867" Properties=species:S:1:pos:R:3:forces:R:3 energy=-13.36761474609375 pbc="T T T"
Ba       0.00000000       0.00000000       0.00000000       0.00254869       0.00081349      -0.02583824
Ni       0.00000000       0.00000000       2.83045268       0.00004233      -0.00195145       0.33801544
Ni       1.65976048       1.65976048       2.34471631      -0.00259107       0.00113796      -0.31217721
3
Lattice="1.6763279438018799 -1.6763279438018799 1.6763279438018799 3.0653350353240967 3.0653350353240967 0.0 -3.0653350353240967 0.0 3.0653350353240967" Properties=species:S:1:pos:R:3:forces:R:3 energy=-24.851686477661133 pbc="T T T"
Hf       0.00000000       0.00000000       0.00000000      -0.00167041      -0.00600262       0.00518023
V       -0.00640725       0.00640725       3.05892777       0.09002664      -0.07164083       0.07603315
V        1.68273520       1.38259983       1.68273520      -0.08835620       0.07764348      -0.08121338
3
Lattice="2.3467421531677246 -2.3467421531677246 2.3467421531677246 2.943209648132324 2.943209648132324 -0.0 -2.943209648132324 -0.0 2.943209648132324" Properties=species:S:1:pos:R:3:forces:R:3 energy=-26.41228675842285 pbc="T T T"
Sm       1.76331818       1.17989302       1.76331818       0.00238018       0.00125511       0.00584184
Os       1.95562232       0.98758882       4.89883184      -0.00562768       0.00094488      -0.00038040
Os       0.97454631      -0.97454494       3.91775608       0.00324748      -0.00220000      -0.00546145
3
Lattice="2.615643262863159 0.0 0.0 0.0 2.615643262863159 0.0 -1.3078216314315796 -1.3078216314315796 8.185998916625977" Properties=species:S:1:pos:R:3:forces:R:3 energy=-19.904197692871094 pbc="T T T"
Nd       0.00000000       0.00000000       0.00851967       0.00183624       0.00016571      -0.12442283
Nd       0.00000000       0.00000000       5.44881248      -0.00445487       0.00013012       0.12025230
Nb       1.30782163       1.30782163       2.72866607       0.00261867      -0.00029582       0.00417043
3
Lattice="-1.3624414205551147 1.3624414205551147 -1.926816701889038 1.3624409437179565 -1.3624409437179565 -1.9268172979354858 -4.678328037261963 -4.678328514099121 1.9268170595169067" Properties=species:S:1:pos:R:3:forces:R:3 energy=-28.325990676879883 pbc="T T T"
Pm       0.00000000       0.00000000       0.00000000      -0.01573535      -0.01252676      -0.00496128
Os      -2.94064498      -2.94064498       0.00000000      -0.47692978      -0.46784067       0.00427315
Os      -1.73768353      -1.73768306      -1.92681706       0.49266517       0.48036736       0.00068809
3
Lattice="3.761378526687622 0.0 0.0 0.0 3.761378526687622 -0.0 -1.880689263343811 -1.880689263343811 4.919428825378418" Properties=species:S:1:pos:R:3:forces:R:3 energy=-9.595087051391602 pbc="T T T"
Er       0.00000000       0.00000000       0.12345934      -0.00362628      -0.00170778      -0.15157741
Er       0.00000000       0.00000000       3.15616059      -0.00134597       0.00796000       0.13676029
Al       1.88068926       1.88068926       1.63980997       0.00497225      -0.00625223       0.01481714
3
Lattice="2.9061434268951416 0.0 -0.0 0.0 2.9061434268951416 0.0 -1.4530717134475708 -1.4530717134475708 5.716741561889648" Properties=species:S:1:pos:R:3:forces:R:3 energy=-21.757186889648438 pbc="T T T"
Tc       0.00000000       0.00000000       3.57362080       0.00235311      -0.00576541       0.92804492
Tc       1.45307171       1.45307171       2.14312077      -0.00474287       0.00464450      -0.91774070
Hg       0.00000000       0.00000000       0.00000000       0.00238967       0.00112095      -0.01030417
3
Lattice="3.4914979934692383 -0.0 0.0 -0.0 3.4914979934692383 0.0 -1.7457489967346191 -1.7457489967346191 11.585183143615723" Properties=species:S:1:pos:R:3:forces:R:3 energy=-2.1195812225341797 pbc="T T T"
Ti       1.74574900       1.74574900       3.86172724      -0.00000000      -0.00000000      -0.00000000
Xe       1.74574900       1.74574900      11.48392296      -0.00139644       0.00029709       0.06403714
Xe       0.00000000       0.00000000       7.82471466       0.00139643      -0.00029710      -0.06403714
3
Lattice="3.211198568344116 0.0 0.0 -0.0 3.211198568344116 0.0 -1.605599284172058 -1.605599284172058 4.179919242858887" Properties=species:S:1:pos:R:3:forces:R:3 energy=-18.994468688964844 pbc="T T T"
Ga       0.00000000       0.00000000       2.81231427      -0.00125027      -0.00053038      -0.03754452
Ga       1.60559928       1.60559928       1.36760509      -0.00060181       0.00464401       0.04169902
Re       0.00000000       0.00000000       0.00000000       0.00185215      -0.00411358      -0.00415446
3
Lattice="1.36557137966156 -1.36557137966156 1.36557137966156 3.0807220935821533 3.0807220935821533 0.0 -3.0807220935821533 -0.0 3.0807220935821533" Properties=species:S:1:pos:R:3:forces:R:3 energy=-12.579692840576172 pbc="T T T"
Li      -0.34412110       0.34412110       2.73660088      -0.00000700      -0.01349324       0.00288467
Li       1.70969307       1.37102890       1.70969307      -0.00349648      -0.01117134       0.00318454
Ru       0.00000032      -0.00000032       0.00000032       0.00350346       0.02466454      -0.00606922
3
Lattice="3.1958072185516357 -0.0 0.0 -0.0 3.1958072185516357 0.0 -1.5979036092758179 -1.5979036092758179 6.452485084533691" Properties=species:S:1:pos:R:3:forces:R:3 energy=-19.807910919189453 pbc="T T T"
La       0.00000000       0.00000000       0.68816441       0.01522785      -0.01391263      -1.58324087
La       0.00000000       0.00000000       3.61349249       0.00996241      -0.03412381       1.63759792
N        1.59790361       1.59790361       2.15082836      -0.02519029       0.04803637      -0.05435707
2
Lattice="-2.094250440597534 2.094250440597534 -1.6390308141708374 2.094250440597534 -2.094250440597534 -1.6390308141708374 -3.895812511444092 -3.895812511444092 0.0" Properties=species:S:1:pos:R:3:forces:R:3 energy=-3.463149070739746 pbc="T T T"
Ti       0.00000000       0.00000000       0.00000000       0.00467514       0.00325522      -0.00069749
Xe      -1.94790626      -1.94790626      -1.63903081      -0.00467514      -0.00325522       0.00069755
2
Lattice="3.8298025131225586 0.0 0.0 0.0 3.8298025131225586 0.0 0.0 0.0 3.8298025131225586" Properties=species:S:1:pos:R:3:forces:R:3 energy=-8.852752685546875 pbc="T T T"
Gd       1.91490126       1.91490126       1.91490126      -0.00128347      -0.00026886       0.00389313
Bi       0.00000000       0.00000000       0.00000000       0.00128344       0.00026885      -0.00389312
2
Lattice="3.1887214183807373 -0.0 -0.0 0.0 3.1887214183807373 0.0 0.0 0.0 3.1887214183807373" Properties=species:S:1:pos:R:3:forces:R:3 energy=-16.489465713500977 pbc="T T T"
Sc       1.59436071       1.59436071       1.59436071       0.00708140       0.00201560       0.00271508
Ir       0.00000000       0.00000000       0.00000000      -0.00708148      -0.00201562      -0.00271511
3
Lattice="3.5827956199645996 -0.0 -0.0 -0.0 3.5827956199645996 -0.0 -1.7913978099822998 -1.7913978099822998 11.410103797912598" Properties=species:S:1:pos:R:3:forces:R:3 energy=-1.2916769981384277 pbc="T T T"
Ca       3.58279562       0.00000000       0.00000000      -0.00000000      -0.00000000      -0.00000000
He       0.00000000       0.00000000       6.51818323       0.00091272      -0.00037105       0.00520520
He       1.79139781       1.79139781       4.89192104      -0.00091272       0.00037105      -0.00520520
2
Lattice="-2.0449814796447754 2.0449814796447754 -2.8920793533325195 2.0449821949005127 -2.0449821949005127 -2.892078399658203 -3.3924431800842285 -3.3924431800842285 0.0" Properties=species:S:1:pos:R:3:forces:R:3 energy=-3.1862001419067383 pbc="T T T"
Rb       0.00000000       0.00000000       0.00000000      -0.00303620      -0.00449856       0.00629166
Tl      -1.69622135      -1.69622195      -2.89207888       0.00303619       0.00449856      -0.00629166
3
Lattice="1.5118452310562134 -1.5118452310562134 1.5118452310562134 2.938154458999634 2.938154458999634 0.0 -2.938154458999634 0.0 2.938154458999634" Properties=species:S:1:pos:R:3:forces:R:3 energy=-18.104015350341797 pbc="T T T"
Cu       1.48333347       1.45482075       1.48333323       0.00618835       0.00814831       0.00435158
Rh       0.10055076       2.83760357       3.03870511      -0.07540940       0.07013245      -0.07574922
Rh      -0.07203829       0.07203803       2.86611605       0.06922109      -0.07828074       0.07139766
3
Lattice="-1.7052899599075317 1.7052899599075317 -1.7040033340454102 1.7052899599075317 -1.7052899599075317 -1.7040033340454102 -4.672766208648682 -4.672766208648682 1.7040033340454102" Properties=species:S:1:pos:R:3:forces:R:3 energy=-26.707721710205078 pbc="T T T"
Sb       0.00000000       0.00000000      -3.40800595       0.00483587       0.01071272       0.00402948
W       -3.01101923      -3.01101923       0.00000089      -0.39269876      -0.40375197       0.02148262
W       -1.66174710      -1.66174710      -1.70400250       0.38786292       0.39303926      -0.02551186
3
Lattice="3.3517515659332275 0.0 -0.0 0.0 3.3517515659332275 -0.0 -1.6758757829666138 -1.6758757829666138 7.028389930725098" Properties=species:S:1:pos:R:3:forces:R:3 energy=-8.061310768127441 pbc="T T T"
Ni       1.67587578       1.67587578       2.34279656       0.00083450       0.00533068      -0.00134326
I        0.00000000       0.00000000       0.67538095      -0.00251518      -0.00231466       0.10822685
I        0.00000000       0.00000000       4.01021242       0.00168058      -0.00301597      -0.10688359
3
Lattice="1.8006020784378052 -1.8006020784378052 1.8006020784378052 2.34724497795105 2.34724497795105 -0.0 -2.34724497795105 0.0 2.34724497795105" Properties=species:S:1:pos:R:3:forces:R:3 energy=-23.936214447021484 pbc="T T T"
Os       0.00000000       0.00000000       0.00000000      -0.00216116      -0.00005418      -0.00451989
O        0.67670715      -0.67670715       3.02395225      -0.54881322       0.55340952      -0.55922985
O        1.12389493       1.22335017       1.12389493       0.55097437      -0.55335528       0.56374979
3
Lattice="-1.6204107999801636 1.6204107999801636 -1.3408786058425903 1.6204107999801636 -1.6204107999801636 -1.3408786058425903 -4.775290489196777 -4.775290489196777 1.3408786058425903" Properties=species:S:1:pos:R:3:forces:R:3 energy=-20.893325805664062 pbc="T T T"
Li      -3.15488005      -6.39570093       0.00000000      -0.00791633      -0.00361417       0.00041236
Ir      -3.20120883      -3.20120835       0.00000000      -0.25614151      -0.26188663      -0.00406233
Ir      -1.57408226      -1.57408178      -1.34087861       0.26405782       0.26550078       0.00364995
3
Lattice="3.231633424758911 -0.0 -0.0 -0.0 3.231633424758911 -0.0 -1.6158167123794556 -1.6158167123794556 6.766179084777832" Properties=species:S:1:pos:R:3:forces:R:3 energy=29.997577667236328 pbc="T T T"
Ce       0.00000000       0.00000000       4.53303337      -0.00127657      -0.00631766       0.13999920
Ce       1.61581671       1.61581671       2.23314571      -0.00188581      -0.00398822      -0.12236759
Pr       0.00000000       0.00000000       0.00000000       0.00316238       0.01030588      -0.01763160
3
Lattice="2.4588935375213623 -2.4588935375213623 2.4588935375213623 1.9361118078231812 1.9361118078231812 -0.0 -1.9361118078231812 -0.0 1.9361118078231812" Properties=species:S:1:pos:R:3:forces:R:3 energy=-7.496251106262207 pbc="T T T"
Zn       1.93611264       1.93611264       0.00000000       0.01025406       0.00265358      -0.00585596
H        1.24440885      -1.24440718       3.18051982       0.11467421      -0.12368505       0.11946861
H        1.21448624       0.72162718       1.21448541      -0.12492825       0.12103148      -0.11361261
3
Lattice="1.831897497177124 -1.831897497177124 1.831897497177124 4.696647644042969 4.696647644042969 0.0 -4.696647644042969 0.0 4.696647644042969" Properties=species:S:1:pos:R:3:forces:R:3 energy=-2.0916061401367188 pbc="T T T"
Pr       0.00000000       0.00000000       0.00000000       0.00491355      -0.00488781      -0.01385092
Kr       0.18029770      -0.18029770       4.87694550      -0.00071574       0.00119320       0.00815650
Kr       1.65159976       3.04504800       1.65159976      -0.00419782       0.00369462       0.00569442
3
Lattice="1.779396653175354 -1.779396653175354 1.779396653175354 4.457633972167969 4.457633972167969 0.0 -4.457633972167969 -0.0 4.457633972167969" Properties=species:S:1:pos:R:3:forces:R:3 energy=-0.09858512878417969 pbc="T T T"
Ar      -1.48587751       1.48587751       2.97175622       0.00101507       0.00409086      -0.00136352
Ar       1.48587763       2.97175622       1.48587739      -0.00120168       0.00423700       0.00081045
Cd       0.00000011      -0.00000011      -0.00000022       0.00018665      -0.00832786       0.00055306
3
Lattice="3.5499796867370605 -0.0 0.0 -0.0 3.5499796867370605 0.0 -1.7749898433685303 -1.7749898433685303 6.062854766845703" Properties=species:S:1:pos:R:3:forces:R:3 energy=-10.492650032043457 pbc="T T T"
Sn       0.00000000       0.00000000       0.00000000      -0.00440975       0.00017945       0.00538148
Cl       0.00000000       0.00000000       4.46172476       0.00202215       0.00046213       0.03853246
Cl       1.77498984       1.77498984       1.60112989       0.00238761      -0.00064157      -0.04391387
3
Lattice="3.544924020767212 -0.0 0.0 0.0 3.544924020767212 0.0 -1.772462010383606 -1.772462010383606 9.5029296875" Properties=species:S:1:pos:R:3:forces:R:3 energy=-7.346993446350098 pbc="T T T"
Sn       0.00000000       0.00000000       5.71283197      -0.00654400       0.00143660      -0.07241095
Sn       1.77246201       1.77246201       3.79009795       0.00654399      -0.00143660       0.07241095
Xe       0.00000000       0.00000000       0.00000000      -0.00000000      -0.00000000      -0.00000000
2
Lattice="-1.5163036584854126 1.5163036584854126 -2.144376516342163 1.5163031816482544 -1.5163031816482544 -2.1443772315979004 -2.1443769931793213 -2.1443769931793213 0.0" Properties=species:S:1:pos:R:3:forces:R:3 energy=-12.710783004760742 pbc="T T T"
Ge       0.00000000       0.00000000       0.00000000       0.00783104       0.00960289       0.00059205
Rh      -1.07218874      -1.07218826      -2.14437675      -0.00783108      -0.00960287      -0.00059202
3
Lattice="-1.541791319847107 1.541791319847107 -2.1804919242858887 1.5417908430099487 -1.5417908430099487 -2.180492639541626 -2.9804394245147705 -2.9804399013519287 2.180492401123047" Properties=species:S:1:pos:R:3:forces:R:3 energy=-23.280710220336914 pbc="T T T"
Hf      -1.98695898      -1.98695898       0.00000000       0.00637313       0.00747368      -0.00563099
Co      -0.97011364      -0.97011316      -2.18049240       0.36737552       0.37415472       0.00425964
Co      -0.02336485      -0.02336485       0.00000000      -0.37374857      -0.38162839       0.00137129
3
Lattice="2.4522387981414795 -0.0 0.0 -0.0 2.4522387981414795 0.0 -1.2261193990707397 -1.2261193990707397 5.001511573791504" Properties=species:S:1:pos:R:3:forces:R:3 energy=-24.404237747192383 pbc="T T T"
V        0.00000000       0.00000000       0.00000000      -0.05511855      -0.01022915       0.00630159
O        0.00000000       0.00000000       3.91500711       0.02836061       0.00307447      -0.06836307
O        1.22611940       1.22611940       1.08650458       0.02675778       0.00715488       0.06206131
3
Lattice="-1.0523167848587036 1.0523167848587036 -1.4892747402191162 1.0523167848587036 -1.0523167848587036 -1.4892747402191162 -7.2107672691345215 -7.2107672691345215 1.4892747402191162" Properties=species:S:1:pos:R:3:forces:R:3 energy=-2.686189651489258 pbc="T T T"
F       -2.44751000      -2.44751000      -1.48927498      -0.08827544      -0.09016284      -0.00031869
F       -7.16684675      -7.16684675      -1.48927498       0.09455037       0.09255528      -0.00011072
Ne      -4.80717850      -4.80717850      -0.00000021      -0.00627495      -0.00239249       0.00042945
2
Lattice="3.502943515777588 0.0 -0.0 0.0 3.502943515777588 -0.0 0.0 -0.0 3.502943515777588" Properties=species:S:1:pos:R:3:forces:R:3 energy=-4.424879550933838 pbc="T T T"
Se       1.75147176       1.75147176       1.75147176       0.01028316      -0.00265668       0.00096094
Br       0.00000000       0.00000000       0.00000000      -0.01028318       0.00265666      -0.00096094
2
Lattice="-1.6472975015640259 1.6472975015640259 -2.32962965965271 1.6472969055175781 -1.6472969055175781 -2.3296303749084473 -2.3296306133270264 -2.3296306133270264 0.0" Properties=species:S:1:pos:R:3:forces:R:3 energy=-12.416555404663086 pbc="T T T"
Ru       0.00000000       0.00000000       0.00000000       0.00204182       0.01060142       0.00505977
Pb      -1.16481555      -1.16481507      -2.32963014      -0.00204185      -0.01060143      -0.00505966
3
Lattice="-1.2893285751342773 1.2893285751342773 -1.8234102725982666 1.2893280982971191 -1.2893280982971191 -1.8234108686447144 -7.7400383949279785 -7.740038871765137 1.8234105110168457" Properties=species:S:1:pos:R:3:forces:R:3 energy=-4.511717319488525 pbc="T T T"
As      -5.16002607      -5.16002607       0.00000000       0.01499058       0.02650312       0.00633297
Ne      -2.31597376      -2.31597328      -1.82341051       0.29048634       0.28660220      -0.00292189
Ne      -0.26403975      -0.26403975       0.00000000      -0.30547684      -0.31310540      -0.00341108
3
Lattice="-1.6919066905975342 1.6919066905975342 -2.3899364471435547 1.6919060945510864 -1.6919060945510864 -2.389937162399292 -5.13467264175415 -5.134673595428467 2.389936923980713" Properties=species:S:1:pos:R:3:forces:R:3 energy=-10.33371639251709 pbc="T T T"
Mg      -3.44276810      -6.82658100      -0.00000037      -0.00353814      -0.00426297       0.00424855
Bi      -3.65093756      -3.65093756       0.00000000       0.12071706       0.12032883      -0.00007546
Bi      -1.48373866      -1.48373818      -2.38993692      -0.11717892      -0.11606586      -0.00417309
3
Lattice="-1.6918838024139404 1.6918838024139404 -2.3926753997802734 1.6918833255767822 -1.6918833255767822 -2.3926761150360107 -5.0172343254089355 -5.017234802246094 2.3926758766174316" Properties=species:S:1:pos:R:3:forces:R:3 energy=-18.5082950592041 pbc="T T T"
Nb       1.69188333      -1.69188333      -2.39267540       0.01666074       0.00753666       0.02378131
Te      -3.88299084      -3.88299084       0.00000068       0.04558152       0.05072585      -0.01093630
Te      -1.13424385      -1.13424337      -2.39267516      -0.06224225      -0.05826250      -0.01284498
3
Lattice="2.994807243347168 -0.0 0.0 -0.0 2.994807243347168 0.0 -1.497403621673584 -1.497403621673584 4.545950412750244" Properties=species:S:1:pos:R:3:forces:R:3 energy=-31.26468276977539 pbc="T T T"
V        1.49740362       1.49740362       1.51531649      -0.00144688      -0.01621220       0.00213383
Tc       0.00000000       0.00000000       0.06118242       0.00248056       0.00637490      -0.38136509
Tc       0.00000000       0.00000000       2.96945047      -0.00103366       0.00983734       0.37923104
3
Lattice="4.664098739624023 -0.0 -0.0 -0.0 4.664098739624023 -0.0 -2.3320493698120117 -2.3320493698120117 5.072357177734375" Properties=species:S:1:pos:R:3:forces:R:3 energy=-8.347098350524902 pbc="T T T"
K        0.00000000       0.00000000       3.53053212      -0.00090005      -0.00250732      -0.21268629
K        2.33204937       2.33204937       1.54182518      -0.00183971      -0.00147031       0.21423030
Te       0.00000000       0.00000000       0.00000000       0.00273975       0.00397764      -0.00154402
3
Lattice="3.832948923110962 0.0 0.0 -0.0 3.832948923110962 0.0 -1.916474461555481 -1.916474461555481 6.864635944366455" Properties=species:S:1:pos:R:3:forces:R:3 energy=-9.857112884521484 pbc="T T T"
Er       0.00000000       0.00000000       0.00000000      -0.00013397      -0.00300350       0.01191947
I        0.00000000       0.00000000       5.04812002      -0.00143567       0.00142604      -0.12242866
I        1.91647446       1.91647446       1.81651592       0.00156964       0.00157747       0.11050920
3
Lattice="3.2456064224243164 -0.0 -0.0 -0.0 3.2456064224243164 -0.0 -1.6228032112121582 -1.6228032112121582 5.833318710327148" Properties=species:S:1:pos:R:3:forces:R:3 energy=-16.999387741088867 pbc="T T T"
Sr       0.00000000       0.00000000       0.00000000       0.00758208       0.00149181       0.01612894
V        0.00000000       0.00000000       3.34327698      -0.00875122       0.00676442      -0.55640894
V        1.62280321       1.62280321       2.49004149       0.00116910      -0.00825620       0.54028004
3
Lattice="2.698544979095459 -2.698544979095459 2.698544979095459 2.872373104095459 2.872373104095459 0.0 -2.872373104095459 -0.0 2.872373104095459" Properties=species:S:1:pos:R:3:forces:R:3 energy=-25.66934585571289 pbc="T T T"
La       0.00000000       0.00000000       0.00000000       0.00287651       0.01271751       0.00328168
Tc       0.29670736      -0.29670736       3.16908050       0.41463870      -0.41103059       0.39731017
Tc       2.40183759       0.47053567       2.40183759      -0.41751522       0.39831308      -0.40059185
3
Lattice="3.9756240844726562 -0.0 -0.0 -0.0 3.9756240844726562 -0.0 -1.9878120422363281 -1.9878120422363281 4.913969039916992" Properties=species:S:1:pos:R:3:forces:R:3 energy=-15.291234970092773 pbc="T T T"
Nd       0.00000000       0.00000000       0.00000000       0.00202868      -0.00512633       0.02143761
Sb       0.00000000       0.00000000       3.39982867       0.00056156      -0.00134045      -0.24360952
Sb       1.98781204       1.98781204       1.51414049      -0.00259025       0.00646680       0.22217184
3
Lattice="1.824049472808838 -1.824049472808838 1.824049472808838 3.2168986797332764 3.2168986797332764 -0.0 -3.2168986797332764 -0.0 3.2168986797332764" Properties=species:S:1:pos:R:3:forces:R:3 energy=-15.344010353088379 pbc="T T T"
Sc       0.22184891      -0.22184891       3.43874884       0.16337927      -0.16348107       0.17111263
Sc       1.60219967       1.61469901       1.60220098      -0.16310614       0.17951222      -0.15982524
Pd      -0.00000043       0.00000043       0.00000086      -0.00027309      -0.01603113      -0.01128742
3
Lattice="3.4234249591827393 -0.0 0.0 0.0 3.4234249591827393 -0.0 -1.7117124795913696 -1.7117124795913696 5.037437915802002" Properties=species:S:1:pos:R:3:forces:R:3 energy=-14.661357879638672 pbc="T T T"
Nd       0.00000000       0.00000000      -0.31341210       0.00424801       0.00718443       1.15326238
Nd       0.00000000       0.00000000       3.67170477      -0.00487361      -0.00062257      -1.17102313
Al       1.71171248       1.71171248       1.67914641       0.00062563      -0.00656187       0.01776090
3
Lattice="3.7550618648529053 0.0 0.0 0.0 3.7550618648529053 -0.0 -1.8775309324264526 -1.8775309324264526 4.336762428283691" Properties=species:S:1:pos:R:3:forces:R:3 energy=-12.539572715759277 pbc="T T T"
Ho       0.00000000       0.00000000       0.14304203      -0.00503162      -0.00397173      -0.21072030
Ho       0.00000000       0.00000000       2.74813342      -0.00408299      -0.00378595       0.21004891
Si       1.87753093       1.87753093       1.44558775       0.00911462       0.00775768       0.00067137
3
Lattice="3.0262091159820557 -0.0 -0.0 0.0 3.0262091159820557 0.0 -1.5131045579910278 -1.5131045579910278 5.362575054168701" Properties=species:S:1:pos:R:3:forces:R:3 energy=8.472454071044922 pbc="T T T"
Ce       0.00000000       0.00000000       0.00000000      -0.00642048      -0.00766408      -0.02480159
Cu       0.00000000       0.00000000       3.27544045       0.00258707       0.00408557      -0.14451595
Cu       1.51310456       1.51310456       2.08713484       0.00383333       0.00357851       0.16931757
3
Lattice="2.998012065887451 0.0 -0.0 -0.0 2.998012065887451 -0.0 -1.4990060329437256 -1.4990060329437256 4.317602634429932" Properties=species:S:1:pos:R:3:forces:R:3 energy=-18.007837295532227 pbc="T T T"
Mn       0.00000000       0.00000000       0.00000000       0.00264433      -0.02062914       0.00017549
Al       0.00000000       0.00000000       3.00534272      -0.00040940       0.01299266       0.06857830
Al       1.49900603       1.49900603       1.31225967      -0.00223496       0.00763648      -0.06875381
3
Lattice="3.288438558578491 -0.0 0.0 -0.0 3.288438558578491 0.0 -1.6442192792892456 -1.6442192792892456 9.656332969665527" Properties=species:S:1:pos:R:3:forces:R:3 energy=-12.284745216369629 pbc="T T T"
Hf       1.64421928       1.64421928       8.95796680      -0.00401384       0.00310725      -0.87354636
Hf       0.00000000       0.00000000       7.13592100       0.00401385      -0.00310725       0.87354636
Xe       1.64421928       1.64421928       3.21877718      -0.00000000      -0.00000000      -0.00000000
3
Lattice="3.6341562271118164 0.0 0.0 0.0 3.6341562271118164 0.0 -1.8170781135559082 -1.8170781135559082 7.187903881072998" Properties=species:S:1:pos:R:3:forces:R:3 energy=-3.3961782455444336 pbc="T T T"
Cl       1.81707811       1.81707811       5.99258709      -0.00357109       0.00422227      -0.00190720
Cl       0.00000000       0.00000000       5.98725128      -0.00609840       0.00424557       0.01675490
Ne       1.81707811       1.81707811       2.39596725       0.00966949      -0.00846784      -0.01484770
2
Lattice="-1.4005459547042847 1.4005459547042847 -1.9806716442108154 1.4005464315414429 -1.4005464315414429 -1.9806710481643677 -2.8231606483459473 -2.8231606483459473 0.0" Properties=species:S:1:pos:R:3:forces:R:3 energy=-8.498525619506836 pbc="T T T"
Pd       0.00000000       0.00000000       0.00000000      -0.00152618      -0.00155668      -0.00135977
Au      -1.41158009      -1.41158056      -1.98067141       0.00152618       0.00155668       0.00135978
3
Lattice="-1.5648798942565918 1.5648798942565918 -1.320430874824524 1.5648798942565918 -1.5648798942565918 -1.320430874824524 -9.73727035522461 -9.73727035522461 1.320430874824524" Properties=species:S:1:pos:R:3:forces:R:3 energy=-16.600839614868164 pbc="T T T"
He       0.00000000       0.00000000       0.00000000      -0.00000000      -0.00000000      -0.00000000
Ru      -5.63100338      -5.63100338       0.00000000      -0.19033962      -0.18689984      -0.00359033
Ru      -4.10626745      -4.10626745      -1.32043087       0.19033968       0.18689990       0.00359033
3
Lattice="1.9846553802490234 -1.9846553802490234 1.9846553802490234 3.7738304138183594 3.7738304138183594 0.0 -3.7738304138183594 0.0 3.7738304138183594" Properties=species:S:1:pos:R:3:forces:R:3 energy=-11.485517501831055 pbc="T T T"
Gd       1.91949606       1.85433578       1.91949606       0.01392574       0.00154869       0.00595470
Pb       1.82629752      -1.82629609       1.82629752       0.02618467      -0.03730732       0.03089785
Pb       0.22351953      -0.22351815       3.99734998      -0.04011041       0.03575864      -0.03685255
3
Lattice="1.7186259031295776 -1.7186259031295776 1.7186259031295776 3.496443748474121 3.496443748474121 0.0 -3.496443748474121 0.0 3.496443748474121" Properties=species:S:1:pos:R:3:forces:R:3 energy=-16.305524826049805 pbc="T T T"
Hf       0.09785058      -0.09785058       0.09785058      -0.00241587      -0.01111990      -0.00383171
Hf      -0.11758081       0.11758081       3.37886310      -0.00481746       0.00092894       0.00084092
Cd       1.73835683       1.75808704       1.73835683       0.00723333       0.01019104       0.00299081
3
Lattice="2.3836023807525635 -0.0 -0.0 0.0 2.3836023807525635 0.0 -1.1918011903762817 -1.1918011903762817 12.338167190551758" Properties=species:S:1:pos:R:3:forces:R:3 energy=-5.091876983642578 pbc="T T T"
Ne       0.00000000       0.00000000       7.69374990      -0.00015377      -0.00015452      -0.06020092
Ne       1.19180107       1.19180107       4.64441681       0.00015377       0.00015452       0.06020092
P        0.00000000       0.00000000       0.00000000      -0.00000000      -0.00000000      -0.00000000
3
Lattice="-1.832535743713379 1.832535743713379 -1.6349656581878662 1.832535743713379 -1.832535743713379 -1.6349656581878662 -5.548013687133789 -5.548013687133789 1.6349656581878662" Properties=species:S:1:pos:R:3:forces:R:3 energy=-14.760159492492676 pbc="T T T"
Cs      -3.69867659      -3.69867659       0.00000000       0.00407352       0.00909331      -0.00058893
V       -1.46460617      -1.46460617      -1.63496566      -0.11697619      -0.12084397       0.00801110
V       -0.38473320      -0.38473320       0.00000000       0.11290269       0.11175064      -0.00742209
2
Lattice="-1.3891373872756958 1.3891373872756958 -1.963841199874878 1.389137864112854 -1.389137864112854 -1.9638406038284302 -2.767516613006592 -2.767516613006592 -0.0" Properties=species:S:1:pos:R:3:forces:R:3 energy=-11.373800277709961 pbc="T T T"
Ti       0.00000000       0.00000000       0.00000000       0.00173522      -0.00194418      -0.00000506
Ga      -1.38375807      -1.38375843      -1.96384084      -0.00173522       0.00194417       0.00000503
2
Lattice="3.512155532836914 0.0 -0.0 0.0 3.512155532836914 -0.0 0.0 -0.0 3.512155532836914" Properties=species:S:1:pos:R:3:forces:R:3 energy=-8.027116775512695 pbc="T T T"
Yb       0.00000000       0.00000000       0.00000000       0.02130923      -0.00678014      -0.00337775
Ti       1.75607777       1.75607777       1.75607777      -0.02130926       0.00678015       0.00337778
3
Lattice="1.4707332849502563 -1.4707332849502563 1.4707332849502563 3.178264856338501 3.178264856338501 -0.0 -3.178264856338501 0.0 3.178264856338501" Properties=species:S:1:pos:R:3:forces:R:3 energy=-12.124044418334961 pbc="T T T"