2
Lattice="-1.4005459547042847 1.4005459547042847 -1.9806716442108154 1.4005464315414429 -1.4005464315414429 -1.9806710481643677 -2.8231606483459473 -2.8231606483459473 0.0" Properties=species:S:1:pos:R:3:forces:R:3 energy=-8.498525619506836 pbc="T T T"
Pd       0.00000000       0.00000000       0.00000000      -0.00152618      -0.00155668      -0.00135977
Au      -1.41158009      -1.41158056      -1.98067141       0.00152618       0.00155668       0.00135978
3
Lattice="3.5080888271331787 -0.0 -0.0 -0.0 3.5080888271331787 -0.0 -1.7540444135665894 -1.7540444135665894 6.186501979827881" Properties=species:S:1:pos:R:3:forces:R:3 energy=-12.261228561401367 pbc="T T T"
Bi       0.00000000       0.00000000       0.25866982      -0.00193991      -0.00278906       0.14289632
Bi       0.00000000       0.00000000       3.86566520      -0.00193968       0.00026749      -0.14259431
Au       1.75404441       1.75404441       2.06216741       0.00387958       0.00252157      -0.00030204
3
Lattice="2.948627233505249 -2.948627233505249 2.948627233505249 2.772193670272827 2.772193670272827 0.0 -2.772193670272827 0.0 2.772193670272827" Properties=species:S:1:pos:R:3:forces:R:3 energy=-4.872697353363037 pbc="T T T"
Hg       0.04385892      -0.04385892       0.04385892       0.05951872      -0.06027785       0.06085528
Hg       0.99782902      -0.99782902       3.77002263      -0.06369504       0.06329927      -0.05966160
Au       1.90694082       0.86525291       1.90694082       0.00417634      -0.00302146      -0.00119368
2
Lattice="-1.9815343618392944 1.9815343618392944 -1.3987582921981812 1.9815343618392944 -1.9815343618392944 -1.3987582921981812 -3.410003900527954 -3.410003900527954 0.0" Properties=species:S:1:pos:R:3:forces:R:3 energy=-7.15024471282959 pbc="T T T"
Au      -1.70500267      -1.70500267      -1.39875770      -0.00141714       0.00513254      -0.00293303
Se      -0.00000062      -0.00000062       0.00000062       0.00141713      -0.00513254       0.00293303
2
Lattice="-1.6768338680267334 1.6768338680267334 -2.3714001178741455 1.6768332719802856 -1.6768332719802856 -2.371400833129883 -2.371399164199829 -2.371399164199829 -0.0" Properties=species:S:1:pos:R:3:forces:R:3 energy=-10.361172676086426 pbc="T T T"
Sc       0.00000000       0.00000000       0.00000000      -0.00011104       0.00459521      -0.00299597
Au      -1.18569982      -1.18569934      -2.37140036       0.00011104      -0.00459522       0.00299597
3
Lattice="-1.7711505889892578 1.7711505889892578 -2.5042359828948975 1.77114999294281 -1.77114999294281 -2.5042366981506348 -3.5335776805877686 -3.5335781574249268 2.5042362213134766" Properties=species:S:1:pos:R:3:forces:R:3 energy=-15.50606632232666 pbc="T T T"
Pr      -1.03621006      -1.03620958      -2.50423551      -0.46949366      -0.47639880       0.00510805
Pr      -3.67522693      -3.67522645      -2.50423551       0.46433252       0.46580237       0.00670081
Au      -2.35571814      -2.35571814       0.00000071       0.00516111       0.01059641      -0.01180886
3
Lattice="-2.0866267681121826 2.0866267681121826 -1.6516697406768799 2.0866267681121826 -2.0866267681121826 -1.6516697406768799 -4.490080833435059 -4.490080833435059 1.6516697406768799" Properties=species:S:1:pos:R:3:forces:R:3 energy=-8.963766098022461 pbc="T T T"
Au      -2.97119451      -2.97119451       0.00000000       0.28080136       0.28102490      -0.00166591
Au      -1.51888645      -1.51888645      -1.65166974      -0.29996550      -0.29794225       0.00891067
Br       0.00000000       0.00000000      -3.30333948       0.01916417       0.01691736      -0.00724474
3
Lattice="2.6318252086639404 -0.0 -0.0 -0.0 2.6318252086639404 -0.0 -1.3159126043319702 -1.3159126043319702 10.193870544433594" Properties=species:S:1:pos:R:3:forces:R:3 energy=-3.2199363708496094 pbc="T T T"
Au       0.00000000       0.00000000       0.00000000       0.00353768      -0.00241502      -0.01909112
Ne       0.00000000       0.00000000       6.51835251      -0.00152941       0.00127960       0.01822541
Ne       1.31591260       1.31591260       3.67551780      -0.00200827       0.00113541       0.00086571
3
Lattice="-1.414507508277893 1.414507508277893 -2.0096795558929443 1.4145070314407349 -1.4145070314407349 -2.0096800327301025 -4.624632358551025 -4.624632835388184 2.0096797943115234" Properties=species:S:1:pos:R:3:forces:R:3 energy=-12.401582717895508 pbc="T T T"
As       0.00000000       0.00000000       0.00000000       0.00894550       0.00292163       0.00208359
Au      -3.07460070      -3.07460070       0.00000000      -0.07506691      -0.07135847      -0.00042673
Au      -1.55003214      -1.55003178      -2.00967979       0.06612141       0.06843683      -0.00165686
3
Lattice="2.7428805828094482 0.0 0.0 -0.0 2.7428805828094482 0.0 -1.3714402914047241 -1.3714402914047241 6.318625450134277" Properties=species:S:1:pos:R:3:forces:R:3 energy=-18.20730209350586 pbc="T T T"
Os       1.37144029       1.37144029       2.10620832       0.00483179      -0.00151224      -0.01565779
Au       0.00000000       0.00000000       0.06850941      -0.00473734      -0.00121887       0.05922860
Au       0.00000000       0.00000000       4.14390707      -0.00009453       0.00273108      -0.04357079
2
Lattice="-1.3954439163208008 1.3954439163208008 -1.9733949899673462 1.3954442739486694 -1.3954442739486694 -1.9733943939208984 -2.5723257064819336 -2.5723257064819336 0.0" Properties=species:S:1:pos:R:3:forces:R:3 energy=-8.444169044494629 pbc="T T T"
Cu      -3.96777081      -1.17688310      -1.97339439       0.00291892      -0.00047454      -0.00073313
Au      -1.28616381      -1.28616428      -1.97339416      -0.00291892       0.00047453       0.00073312
3
Lattice="-2.396714210510254 2.396714210510254 -1.5497230291366577 2.396714210510254 -2.396714210510254 -1.5497230291366577 -2.753650665283203 -2.753650665283203 1.5497230291366577" Properties=species:S:1:pos:R:3:forces:R:3 energy=-15.879068374633789 pbc="T T T"
B       -0.62442648      -0.62442648      -1.54972303      -0.02416559      -0.02355988      -0.01710949
B       -0.29345560      -0.29345560       0.00000000       0.02833635       0.02379239      -0.01678471
Au      -1.83576643      -1.83576643       0.00000000      -0.00417075      -0.00023255       0.03389423
3
Lattice="4.213917255401611 -4.213917255401611 4.213917255401611 1.8034926652908325 1.8034926652908325 -0.0 -1.8034926652908325 -0.0 1.8034926652908325" Properties=species:S:1:pos:R:3:forces:R:3 energy=-22.12317657470703 pbc="T T T"
Au       0.00000000       0.00000000       0.00000000       0.00136931      -0.00043397       0.00039107
C        1.50579095      -1.50579095       3.30928373       0.01225448       0.00281148      -0.00763868
C        2.70812607      -0.90463346       2.70812607      -0.01362382      -0.00237736       0.00724761
3
Lattice="2.9733035564422607 -2.9733035564422607 2.9733035564422607 3.2677063941955566 3.2677063941955566 0.0 -3.2677063941955566 -0.0 3.2677063941955566" Properties=species:S:1:pos:R:3:forces:R:3 energy=-9.031961441040039 pbc="T T T"
Cs       2.08033705       1.18736911       2.08033705       0.00528558      -0.00302135       0.00310991
Au       2.47774291      -2.47774291       2.47774291      -0.00168427       0.00138176       0.00057034
Au       1.38852870      -1.38852870       4.65623474      -0.00360132       0.00163959      -0.00368026
3
Lattice="2.875474691390991 0.0 -0.0 0.0 2.875474691390991 -0.0 -1.4377373456954956 -1.4377373456954956 4.877103328704834" Properties=species:S:1:pos:R:3:forces:R:3 energy=-12.139278411865234 pbc="T T T"
Au       0.00000000       0.00000000       0.20144226      -0.00126976      -0.00051908       0.06664109
Au       0.00000000       0.00000000       3.04996061      -0.00212521      -0.00065489      -0.04661095
N        1.43773735       1.43773735       1.62570143       0.00339496       0.00117400      -0.02003012
2
Lattice="3.381437301635742 0.0 0.0 0.0 3.381437301635742 0.0 0.0 0.0 3.381437301635742" Properties=species:S:1:pos:R:3:forces:R:3 energy=-12.570541381835938 pbc="T T T"
Zr       1.69071865       1.69071865       1.69071865      -0.00633352       0.00486450      -0.00134613
Au       0.00000000       0.00000000       0.00000000       0.00633354      -0.00486448       0.00134612
3
Lattice="4.1535749435424805 -0.0 -0.0 0.0 4.1535749435424805 -0.0 -2.0767874717712402 -2.0767874717712402 8.256366729736328" Properties=species:S:1:pos:R:3:forces:R:3 energy=-6.209209442138672 pbc="T T T"
Rb       0.00000000       0.00000000       6.33550882       0.00198649       0.00184949       0.10138303
Rb       2.07678747       2.07678747       1.92085838      -0.00197515       0.00056739      -0.09882307
Au       0.00000000       0.00000000       0.00000000      -0.00001134      -0.00241688      -0.00255995
3
Lattice="-1.393672227859497 1.393672227859497 -1.9729127883911133 1.3936717510223389 -1.3936717510223389 -1.972913384437561 -4.256641864776611 -4.2566423416137695 1.9729130268096924" Properties=species:S:1:pos:R:3:forces:R:3 energy=-17.553483963012695 pbc="T T T"
Pt      -1.39051008      -1.39050972      -1.97291243       0.09563006       0.09679657       0.00091379
Pt      -0.02837133      -0.02837133       0.00000056      -0.09521688      -0.09673411      -0.00290851
Au      -2.83776164      -2.83776164       0.00000056      -0.00041318      -0.00006244       0.00199468
3
Lattice="1.5254848003387451 -1.5254848003387451 1.5254848003387451 3.234405755996704 3.234405755996704 -0.0 -3.234405755996704 -0.0 3.234405755996704" Properties=species:S:1:pos:R:3:forces:R:3 energy=-15.823751449584961 pbc="T T T"
Ru       1.58662999       1.64777458       1.58662999      -0.00427791      -0.01178763      -0.00320152
Au       1.40874600       1.82565856       4.64315176       0.06237076      -0.06653710       0.07240868
Au       0.05559302      -0.05559411       3.28999877      -0.05809280       0.07832466      -0.06920710
3
Lattice="2.6421823501586914 -0.0 -0.0 -0.0 2.6421823501586914 0.0 -1.3210911750793457 -1.3210911750793457 5.312702655792236" Properties=species:S:1:pos:R:3:forces:R:3 energy=-18.141555786132812 pbc="T T T"
Co       0.00000000       0.00000000       3.35394359      -0.00294322      -0.00028133       0.17545579
Co       1.32109118       1.32109118       1.95875919      -0.00080863      -0.00205105      -0.17535323
Au       0.00000000       0.00000000       0.00000000       0.00375179       0.00233230      -0.00010258
2
Lattice="-1.772530436515808 1.772530436515808 -1.3497862815856934 1.772530436515808 -1.772530436515808 -1.3497862815856934 -3.427363634109497 -3.427363634109497 0.0" Properties=species:S:1:pos:R:3:forces:R:3 energy=-9.134223937988281 pbc="T T T"
Si       0.00000000       0.00000000       0.00000000       0.00272554      -0.00018122       0.00258487
Au      -1.71368182      -1.71368182      -1.34978628      -0.00272555       0.00018123      -0.00258482
3
Lattice="1.531383752822876 -1.531383752822876 1.531383752822876 3.3774871826171875 3.3774871826171875 -0.0 -3.3774871826171875 0.0 3.3774871826171875" Properties=species:S:1:pos:R:3:forces:R:3 energy=-23.97222328186035 pbc="T T T"
Ta      -0.02886252       0.02886252       3.34862375      -0.23771897       0.23426357      -0.24467486
Ta       1.56024683       1.81724036       1.56024599       0.24780571      -0.24950023       0.24718729
Au       0.00000027      -0.00000027      -0.00000053      -0.01008677       0.01523668      -0.00251245
3
Lattice="3.301894187927246 0.0 0.0 -0.0 3.301894187927246 -0.0 -1.650947093963623 -1.650947093963623 4.1093831062316895" Properties=species:S:1:pos:R:3:forces:R:3 energy=-7.720645904541016 pbc="T T T"
Zn       0.00000000       0.00000000       2.72165656       0.00371033       0.00372942       0.02412936
Zn       1.65094709       1.65094709       1.38772678       0.00309795       0.00019021      -0.02260744
Au       0.00000000       3.30189419       0.00000000      -0.00680830      -0.00391964      -0.00152191
2
Lattice="-2.1971988677978516 2.1971988677978516 -1.4046990871429443 2.1971988677978516 -2.1971988677978516 -1.4046990871429443 -2.3776516914367676 -2.3776516914367676 -0.0" Properties=species:S:1:pos:R:3:forces:R:3 energy=-8.514581680297852 pbc="T T T"
B       -2.19719815       2.19719815      -1.40470004       0.02319651       0.01424547      -0.00625870
Au      -1.18882513      -1.18882644      -1.40470004      -0.02319644      -0.01424547       0.00625867
3
Lattice="1.8276270627975464 -1.8276270627975464 1.8276270627975464 3.351064920425415 3.351064920425415 -0.0 -3.351064920425415 0.0 3.351064920425415" Properties=species:S:1:pos:R:3:forces:R:3 energy=-14.761748313903809 pbc="T T T"
Pr       1.72623074       1.62483382       1.72623074       0.00791677      -0.00277119       0.00686142
Au       1.52302289      -1.52302325       1.52302289      -0.00337579       0.00414372      -0.00008058
Au       0.40600079      -0.40600115       3.75706577      -0.00454101      -0.00137255      -0.00678081
2
Lattice="-1.7543625831604004 1.7543625831604004 -2.4810192584991455 1.7543619871139526 -1.7543619871139526 -2.481019973754883 -2.4811928272247314 -2.4811928272247314 0.0" Properties=species:S:1:pos:R:3:forces:R:3 energy=-7.227468967437744 pbc="T T T"
Yb       0.00000000       0.00000000       0.00000000      -0.00773198       0.00226711      -0.00964122
Au      -1.24059665      -1.24059606      -2.48101974       0.00773197      -0.00226712       0.00964121
2
Lattice="3.1374423503875732 -0.0 -0.0 -0.0 3.1374423503875732 -0.0 -0.0 -0.0 3.1374423503875732" Properties=species:S:1:pos:R:3:forces:R:3 energy=-13.7752046585083 pbc="T T T"
Tc       1.56872118       1.56872118       1.56872118       0.00892712       0.00392218       0.01408092
Au       0.00000000       0.00000000       0.00000000      -0.00892714      -0.00392215      -0.01408090
2
Lattice="-1.7566617727279663 1.7566617727279663 -1.431277871131897 1.7566617727279663 -1.7566617727279663 -1.431277871131897 -5.230228900909424 -5.230228900909424 -0.0" Properties=species:S:1:pos:R:3:forces:R:3 energy=-2.764645576477051 pbc="T T T"
Ar      -5.23023033      -5.23023033      -2.86255431       0.00574701       0.00998681      -0.00033384
Au      -2.61511564      -2.61511564      -1.43127644      -0.00574702      -0.00998682       0.00033379
2
Lattice="-1.6788475513458252 1.6788475513458252 -2.374248504638672 1.678847074508667 -1.678847074508667 -2.374249219894409 -2.374248743057251 -2.374248743057251 -0.0" Properties=species:S:1:pos:R:3:forces:R:3 energy=-12.546116828918457 pbc="T T T"
Hf       0.00000000       0.00000000       0.00000000      -0.00148476       0.00706255      -0.00421281
Au      -1.18712461      -1.18712413      -2.37424874       0.00148478      -0.00706256       0.00421283
3
Lattice="-1.6439507007598877 1.6439507007598877 -1.3720180988311768 1.6439507007598877 -1.6439507007598877 -1.3720180988311768 -5.110567092895508 -5.110567092895508 1.3720180988311768" Properties=species:S:1:pos:R:3:forces:R:3 energy=-25.543170928955078 pbc="T T T"
Os      -1.61550128      -1.61550128      -1.37201881       0.28305143       0.27785161      -0.01007988
Os      -0.08802080      -0.08802080      -0.00000082      -0.28102243      -0.28002316      -0.00745186
Au      -3.40704465      -3.40704465      -0.00000082      -0.00202902       0.00217150       0.01753187
3
Lattice="2.8492462635040283 0.0 -0.0 0.0 2.8492462635040283 -0.0 -1.4246231317520142 -1.4246231317520142 5.046413898468018" Properties=species:S:1:pos:R:3:forces:R:3 energy=-12.661234855651855 pbc="T T T"
B        1.42462301       1.42462301       1.68213820      -0.00231546      -0.00342040      -0.00142590
Au       0.00000000       0.00000000       0.28319293       0.00386077       0.00219384      -0.03889906
Au       0.00000000       0.00000000       3.08108330      -0.00154525       0.00122660       0.04032469
3
Lattice="2.8440322875976562 0.0 0.0 0.0 2.8440322875976562 0.0 -1.4220161437988281 -1.4220161437988281 6.079709529876709" Properties=species:S:1:pos:R:3:forces:R:3 energy=-12.64588451385498 pbc="T T T"
P        1.42201614       1.42201614       2.02657008       0.00540881       0.00472662      -0.00240552
Au       0.00000000       0.00000000       0.07374765      -0.00094844      -0.00207078       0.11588725
Au       0.00000000       0.00000000       3.97939253      -0.00446038      -0.00265583      -0.11348173
3
Lattice="2.8785207271575928 0.0 0.0 0.0 2.8785207271575928 0.0 -1.4392603635787964 -1.4392603635787964 4.9481916427612305" Properties=species:S:1:pos:R:3:forces:R:3 energy=-12.554071426391602 pbc="T T T"
Au       0.00000000       0.00000000       0.22815832       0.00383199       0.00764811      -0.13017046
Au       0.00000000       0.00000000       3.07063556      -0.00080176       0.00307512       0.14379138
C        1.43926036       1.43926036       1.64939690      -0.00303023      -0.01072326      -0.01362078
2
Lattice="-1.6950017213821411 1.6950017213821411 -2.397087335586548 1.6950021982192993 -1.6950021982192993 -2.3970866203308105 -2.461618661880493 -2.461618661880493 -0.0" Properties=species:S:1:pos:R:3:forces:R:3 energy=-7.088961601257324 pbc="T T T"
In       0.00000000       0.00000000       0.00000000       0.00377883      -0.00626864       0.00016406
Au      -1.23080909      -1.23080957      -2.39708710      -0.00377883       0.00626864      -0.00016409
2
Lattice="-1.344580054283142 1.344580054283142 -1.9001878499984741 1.3445805311203003 -1.3445805311203003 -1.9001872539520264 -2.897353410720825 -2.897353410720825 0.0" Properties=species:S:1:pos:R:3:forces:R:3 energy=-12.704949378967285 pbc="T T T"
V       -1.34458005       1.34458005      -1.90018737       0.00504959       0.00147770       0.00068696
Au      -1.44867659      -1.44867694      -1.90018702      -0.00504957      -0.00147770      -0.00068706
3
Lattice="1.5688140392303467 -1.5688140392303467 1.5688140392303467 3.133711576461792 3.133711576461792 -0.0 -3.133711576461792 -0.0 3.133711576461792" Properties=species:S:1:pos:R:3:forces:R:3 energy=-12.793371200561523 pbc="T T T"
Pd      -0.01726455       0.01726455       3.11644697      -0.01993418       0.01986858      -0.01942067
Pd       1.58607864       1.54763293       1.58607864       0.01503308      -0.02051282       0.01767802
Au      -3.13371158       0.00000000       3.13371158       0.00490114       0.00064422       0.00174266
2
Lattice="-1.4111264944076538 1.4111264944076538 -1.9956332445144653 1.411126971244812 -1.411126971244812 -1.9956326484680176 -2.577075242996216 -2.577075242996216 0.0" Properties=species:S:1:pos:R:3:forces:R:3 energy=-6.870180606842041 pbc="T T T"
Li      -3.98820114      -1.16594803      -1.99563265      -0.00014527       0.00058274       0.00149758
Au      -1.28853667      -1.28853714      -1.99563229       0.00014526      -0.00058275      -0.00149757
3
Lattice="3.4209961891174316 -0.0 -0.0 -0.0 3.4209961891174316 -0.0 -1.7104980945587158 -1.7104980945587158 4.161006450653076" Properties=species:S:1:pos:R:3:forces:R:3 energy=-5.8133344650268555 pbc="T T T"
Au       0.00000000       0.00000000      -0.04193952      -0.00038974       0.00359498       0.20578086
Au       0.00000000       0.00000000       2.81594491      -0.00009439       0.00268381      -0.18100519
He       1.71049809       1.71049809       1.38700271       0.00048411      -0.00627878      -0.02477571
3
Lattice="-1.7482670545578003 1.7482670545578003 -2.4713754653930664 1.7482664585113525 -1.7482664585113525 -2.471376419067383 -2.8469045162200928 -2.846904993057251 2.4713759422302246" Properties=species:S:1:pos:R:3:forces:R:3 energy=-13.192229270935059 pbc="T T T"
Si       0.00000000       0.00000000       0.00000000       0.00635390      -0.01280729      -0.00563112
Au      -1.89439082      -1.89439082       0.00000000      -0.01192642      -0.00230406       0.00478142
Au      -0.95251423      -0.95251369      -2.47137594       0.00557256       0.01511134       0.00084972
2
Lattice="-2.0778353214263916 2.0778353214263916 -1.6894526481628418 2.0778353214263916 -2.0778353214263916 -1.6894526481628418 -4.62153959274292 -4.62153959274292 -0.0" Properties=species:S:1:pos:R:3:forces:R:3 energy=-1.4492008686065674 pbc="T T T"
Au      -2.31077003      -2.31077003      -1.68945158       0.00808017       0.00096435       0.00058473
Xe      -0.00000032      -0.00000032       0.00000100      -0.00808018      -0.00096436      -0.00058472
3
Lattice="3.717160701751709 -0.0 0.0 -0.0 3.717160701751709 0.0 -1.8585803508758545 -1.8585803508758545 4.596629619598389" Properties=species:S:1:pos:R:3:forces:R:3 energy=-14.89669418334961 pbc="T T T"
Pr       1.85858035       1.85858035       1.53221011       0.00442742       0.00373117       0.01993261
Au       0.00000000       0.00000000      -0.02363124      -0.00161079      -0.00158968       0.00965732
Au       0.00000000       0.00000000       3.08805156      -0.00281662      -0.00214150      -0.02958991
3
Lattice="3.407357931137085 -0.0 -0.0 -0.0 3.407357931137085 -0.0 -1.7036789655685425 -1.7036789655685425 6.521719455718994" Properties=species:S:1:pos:R:3:forces:R:3 energy=-11.77907943725586 pbc="T T T"
Pb       0.00000000       0.00000000       0.30071837       0.00149557      -0.00158019       0.05689242
Pb       0.00000000       0.00000000       4.04709435      -0.00120909       0.00010391      -0.05642680
Au       1.70367897       1.70367897       2.17390633      -0.00028648       0.00147628      -0.00046562
3
Lattice="3.772141456604004 0.0 0.0 -0.0 3.772141456604004 0.0 -1.886070728302002 -1.886070728302002 5.932723045349121" Properties=species:S:1:pos:R:3:forces:R:3 energy=-9.029805183410645 pbc="T T T"
Rb       1.88607073       1.88607073       1.97757423       0.00067500       0.00112909      -0.01506692
Au       1.88607073       1.88607073       5.12471437      -0.00237370      -0.00359296       0.25129452
Au       0.00000000       0.00000000       4.76315689       0.00169872       0.00246386      -0.23622765
3
Lattice="-1.5179083347320557 1.5179083347320557 -1.634319543838501 1.5179083347320557 -1.5179083347320557 -1.634319543838501 -4.77688455581665 -4.77688455581665 1.634319543838501" Properties=species:S:1:pos:R:3:forces:R:3 energy=-26.46013641357422 pbc="T T T"
Mo      -1.55025733      -1.55025733      -1.63432062      -0.23588464      -0.23189102      -0.00710932
Mo      -0.04203930      -0.04203930      -0.00000109       0.23713866       0.23436105       0.00017404
Au      -3.18459058      -3.18459058      -0.00000109      -0.00125401      -0.00247002       0.00693518
3
Lattice="1.914595603942871 -1.914595603942871 1.914595603942871 3.2935004234313965 3.2935004234313965 -0.0 -3.2935004234313965 -0.0 3.2935004234313965" Properties=species:S:1:pos:R:3:forces:R:3 energy=-15.057424545288086 pbc="T T T"
Y        1.73603225       1.55746818       1.73603225      -0.00508210       0.00448629      -0.00188779
Au       1.59549642      -1.59549642       1.59549642       0.00038783      -0.00474340       0.00345247
Au       0.49766311      -0.49766311       3.79116344       0.00469428       0.00025712      -0.00156472
3
Lattice="-1.8131318092346191 1.8131318092346191 -2.558842897415161 1.813131332397461 -1.813131332397461 -2.5588436126708984 -3.014369010925293 -3.014369487762451 2.5588431358337402" Properties=species:S:1:pos:R:3:forces:R:3 energy=-11.167781829833984 pbc="T T T"
In      -1.20123732      -4.82750034      -0.00000040       0.00937309      -0.00343107       0.00016531
Au      -2.00599527      -2.00599527       0.00000000      -0.01686560      -0.01127069      -0.00007785
Au      -1.00837350      -1.00837290      -2.55884314       0.00749251       0.01470177      -0.00008747
3
Lattice="3.0728228092193604 -0.0 0.0 -0.0 3.0728228092193604 0.0 -1.5364114046096802 -1.5364114046096802 5.750572681427002" Properties=species:S:1:pos:R:3:forces:R:3 energy=-9.122657775878906 pbc="T T T"
Au       1.53641140       1.53641140       5.68504095      -0.00264189      -0.00283424      -0.08563213
Au       0.00000000       0.00000000       3.89924693      -0.00550960      -0.00407359       0.09368488
Cl       1.53641140       1.53641140       1.91685748       0.00815147       0.00690785      -0.00805286
3
Lattice="3.4955973625183105 -0.0 -0.0 -0.0 3.4955973625183105 -0.0 -1.7477986812591553 -1.7477986812591553 4.026468276977539" Properties=species:S:1:pos:R:3:forces:R:3 energy=-13.19559383392334 pbc="T T T"
Si       1.74779868       1.74779868       1.34215617       0.00228251      -0.00552774      -0.00034711
Au       1.74779868       1.74779868       4.02156878      -0.00309683       0.00149855       0.01429845
Au       0.00000000       0.00000000       2.68921185       0.00081433       0.00402924      -0.01395135
3
Lattice="3.669240713119507 -0.0 -0.0 0.0 3.669240713119507 -0.0 -1.8346203565597534 -1.8346203565597534 4.528340816497803" Properties=species:S:1:pos:R:3:forces:R:3 energy=-12.768095016479492 pbc="T T T"
Dy       1.83462036       1.83462036       1.50944662      -0.00089779       0.00545358      -0.00343881
Au       0.00000000       0.00000000      -0.01350841       0.00067962      -0.00517893       0.02542953
Au       0.00000000       0.00000000       3.03240156       0.00021816      -0.00027464      -0.02199074
2
Lattice="3.882824182510376 0.0 0.0 0.0 3.882824182510376 0.0 0.0 0.0 3.882824182510376" Properties=species:S:1:pos:R:3:forces:R:3 energy=-1.4760029315948486 pbc="T T T"
Au       0.00000000       0.00000000       0.00000000      -0.00167353      -0.01648364       0.00244082
Xe       1.94141209       1.94141209       1.94141209       0.00167352       0.01648364      -0.00244082
3
Lattice="1.8016934394836426 -1.8016934394836426 1.8016934394836426 3.354877233505249 3.354877233505249 -0.0 -3.354877233505249 0.0 3.354877233505249" Properties=species:S:1:pos:R:3:forces:R:3 energy=-14.414971351623535 pbc="T T T"
Nd       1.71885705       1.63602006       1.71885705       0.00172680      -0.01825149      -0.00308891
Au       1.50141168      -1.50141168       1.50141168      -0.00314303       0.01001408       0.00569962
Au       0.38311866      -0.38311866       3.73799586       0.00141626       0.00823739      -0.00261070
3
Lattice="3.2465453147888184 -3.2465453147888184 3.2465453147888184 2.5355684757232666 2.5355684757232666 0.0 -2.5355684757232666 0.0 2.5355684757232666" Properties=species:S:1:pos:R:3:forces:R:3 energy=-13.085344314575195 pbc="T T T"
Sm       1.14728463      -1.14728463       3.68285322       0.90481126      -0.89843345       0.90324765
Sm       2.09926081       0.43630773       2.09926081      -0.90453082       0.91612017      -0.90583813
Au       0.00000000       0.00000000       0.00000000      -0.00028040      -0.01768675       0.00259035
3
Lattice="-1.9878830909729004 1.9878830909729004 -2.8108935356140137 1.987882375717163 -1.987882375717163 -2.810894250869751 -5.453845977783203 -5.4538469314575195 2.810894012451172" Properties=species:S:1:pos:R:3:forces:R:3 energy=-6.167457580566406 pbc="T T T"
K       -2.32306027      -2.32305956      -2.81089306      -0.11139748      -0.10962148      -0.00030129
K       -4.94873857      -4.94873762      -2.81089306       0.11107583       0.10944498       0.00693473
Au      -3.63589907      -3.63589907       0.00000080       0.00032159       0.00017650      -0.00663344
2
Lattice="3.0468688011169434 -0.0 0.0 -0.0 3.0468688011169434 -0.0 0.0 -0.0 3.0468688011169434" Properties=species:S:1:pos:R:3:forces:R:3 energy=-8.418558120727539 pbc="T T T"
Cu       1.52343440       1.52343440       1.52343440       0.00025464      -0.00112095      -0.00011875
Au       0.00000000       0.00000000       0.00000000      -0.00025464       0.00112096       0.00011874
2
Lattice="3.579087018966675 -0.0 0.0 -0.0 3.579087018966675 0.0 0.0 0.0 3.579087018966675" Properties=species:S:1:pos:R:3:forces:R:3 energy=-7.767876625061035 pbc="T T T"
Pb       0.00000000       0.00000000       0.00000000       0.00336371      -0.00047313       0.00391047
Au       1.78954351       1.78954351       1.78954351      -0.00336371       0.00047313      -0.00391047
3
Lattice="2.7419140338897705 0.0 0.0 -0.0 2.7419140338897705 -0.0 -1.3709570169448853 -1.3709570169448853 5.009192943572998" Properties=species:S:1:pos:R:3:forces:R:3 energy=-15.837048530578613 pbc="T T T"
Ni       0.00000000       0.00000000       3.20104098       0.00031180       0.00179489       0.11244433
Ni       1.37095702       1.37095702       1.80815196       0.00117304      -0.00188912      -0.10860465
Au       0.00000000       0.00000000       0.00000000      -0.00148492       0.00009416      -0.00383969
2
Lattice="3.158855676651001 -0.0 0.0 0.0 3.158855676651001 -0.0 0.0 -0.0 3.158855676651001" Properties=species:S:1:pos:R:3:forces:R:3 energy=-8.45605182647705 pbc="T T T"
Pd       1.57942784       1.57942784       1.57942784       0.00268331      -0.00394333       0.00023943
Au       0.00000000       0.00000000       0.00000000      -0.00268332       0.00394333      -0.00023941
3
Lattice="1.629064679145813 -1.629064679145813 1.629064679145813 3.6234798431396484 3.6234798431396484 -0.0 -3.6234798431396484 -0.0 3.6234798431396484" Properties=species:S:1:pos:R:3:forces:R:3 energy=-9.033260345458984 pbc="T T T"
K        1.75084877       1.87263227       1.75084877       0.00092564      -0.00450531       0.00140862
Au       1.35755444      -1.35755336       1.35755444      -0.00112857       0.00184128       0.00016241
Au       0.14972784      -0.14972670       3.77320766       0.00020295       0.00266403      -0.00157101
3
Lattice="2.683689832687378 -2.683689832687378 2.683689832687378 2.2961530685424805 2.2961530685424805 0.0 -2.2961530685424805 -0.0 2.2961530685424805" Properties=species:S:1:pos:R:3:forces:R:3 energy=-13.066787719726562 pbc="T T T"
B        1.65994799       0.63620514       1.65994799       0.02927891      -0.00832839      -0.00118605
Au       0.16265063      -0.16265063       0.16265063       0.19246674      -0.20769088       0.20691197